
                                 *****************
                                 * O   R   C   A *
                                 *****************

           --- An Ab Initio, DFT and Semiempirical electronic structure package ---

                  #######################################################
                  #                        -***-                        #
                  #  Department of molecular theory and spectroscopy    #
                  #              Directorship: Frank Neese              #
                  # Max Planck Institute for Chemical Energy Conversion #
                  #                  D-45470 Muelheim/Ruhr              #
                  #                       Germany                       #
                  #                                                     #
                  #                  All rights reserved                #
                  #                        -***-                        #
                  #######################################################


                         Program Version 4.0.1.2 - RELEASE -


 With contributions from (in alphabetic order):
   Daniel Aravena         : Magnetic Properties
   Michael Atanasov       : Ab Initio Ligand Field Theory
   Ute Becker             : Parallelization
   Martin Brehm           : Molecular dynamics
   Dmytro Bykov           : SCF Hessian
   Vijay G. Chilkuri      : MRCI spin determinant printing
   Dipayan Datta          : RHF DLPNO-CCSD density
   Achintya Kumar Dutta   : EOM-CC, STEOM-CC
   Dmitry Ganyushin       : Spin-Orbit,Spin-Spin,Magnetic field MRCI
   Yang Guo               : DLPNO-NEVPT2, CIM, IAO-localization
   Andreas Hansen         : Spin unrestricted coupled pair/coupled cluster methods
   Lee Huntington         : MR-EOM, pCC
   Robert Izsak           : Overlap fitted RIJCOSX, COSX-SCS-MP3, EOM
   Christian Kollmar      : KDIIS, OOCD, Brueckner-CCSD(T), CCSD density
   Simone Kossmann        : Meta GGA functionals, TD-DFT gradient, OOMP2, MP2 Hessian
   Martin Krupicka        : AUTO-CI
   Dagmar Lenk            : GEPOL surface
   Dimitrios Liakos       : Extrapolation schemes; parallel MDCI
   Dimitrios Manganas     : ROCIS; embedding schemes
   Dimitrios Pantazis     : SARC Basis sets
   Taras Petrenko         : DFT Hessian,TD-DFT gradient, ASA, ECA, R-Raman, ABS, FL, XAS/XES, NRVS
   Peter Pinski           : DLPNO-MP2
   Christoph Reimann      : Effective Core Potentials
   Marius Retegan         : Local ZFS, SOC
   Christoph Riplinger    : Optimizer, TS searches, QM/MM, DLPNO-CCSD(T), (RO)-DLPNO pert. Triples
   Tobias Risthaus        : Range-separated hybrids, TD-DFT gradient, RPA, STAB
   Michael Roemelt        : Restricted open shell CIS
   Masaaki Saitow         : Open-shell DLPNO
   Barbara Sandhoefer     : DKH picture change effects
   Kantharuban Sivalingam : CASSCF convergence, NEVPT2, FIC-MRCI
   Georgi Stoychev        : AutoAux
   Boris Wezisla          : Elementary symmetry handling
   Frank Wennmohs         : Technical directorship


 We gratefully acknowledge several colleagues who have allowed us to
 interface, adapt or use parts of their codes:
   Stefan Grimme, W. Hujo, H. Kruse,             : VdW corrections, initial TS optimization,
                  C. Bannwarth                     DFT functionals, gCP, sTDA/sTD-DF
   Ed Valeev                                     : LibInt (2-el integral package), F12 methods
   Garnet Chan, S. Sharma, J. Yang, R. Olivares  : DMRG
   Ulf Ekstrom                                   : XCFun DFT Library
   Mihaly Kallay                                 : mrcc  (arbitrary order and MRCC methods)
   Andreas Klamt, Michael Diedenhofen            : otool_cosmo (COSMO solvation model)
   Jiri Pittner, Ondrej Demel                    : Mk-CCSD
   Frank Weinhold                                : gennbo (NPA and NBO analysis)
   Christopher J. Cramer and Donald G. Truhlar   : smd solvation model


 Your calculation uses the libint2 library for the computation of 2-el integrals
 For citations please refer to: http://libint.valeyev.net

 This ORCA versions uses:
   CBLAS   interface :  Fast vector & matrix operations
   LAPACKE interface :  Fast linear algebra routines
   SCALAPACK package :  Parallel linear algebra routines


Your calculation utilizes the atom-pairwise dispersion correction
with the zero-damping scheme (D30)
Cite in your paper:
S.Grimme, J.Antony, S.Ehrlich and H.Krieg, J.Chem.Phys., 132, (2010), 154104 
   

XCFun DFT library Copyright 2009-2010 Ulf Ekstrom and contributors.
See http://admol.org/xcfun for more information. This is free soft-
ware; see the source code for copying conditions. There is ABSOLUTELY
NO WARRANTY; not even for MERCHANTABILITY or FITNESS FOR A PARTICULAR
PURPOSE. For details see the documentation. Scientific users of this 
library should cite U. Ekstrom, L. Visscher, R. Bast, A. J. Thorvald-
sen and K. Ruud; J.Chem.Theor.Comp. 2010, DOI: 10.1021/ct100117s
XCFun Version 0.99 
Your calculation utilizes the basis: def2-SVP
   F. Weigend and R. Ahlrichs, Phys. Chem. Chem. Phys. 7, 3297 (2005).

Your calculation utilizes the auxiliary basis: def2/JK
   H-Ba, Hf-Rn: F. Weigend, J. Comput. Chem. 29, 167 (2008).

WARNING: Overwriting auxiliary coulomb basis with /JK basis!
================================================================================
                                        WARNINGS
                       Please study these warnings very carefully!
================================================================================

Warning: TCutStore was < 0. Adjusted to Thresh (uncritical)
INFO   : Checking CIS options ...

WARNING: CIS/ROCIS methods need fully converged wavefunctions
  ===> : Setting SCFConvForced true
         You can overwrite this default with %scf ConvForced false 


INFO   : the flag for use of LIBINT has been found!

================================================================================
                                       INPUT FILE
================================================================================
NAME = /scratch/ch1tk/orca.15371/wB97XD3_def2-SVP_toluene_S0_TDA6S_1-90.inp
|  1> ! UKS wB97X-D3 def2-SVP RIJCOSX def2/JK SlowConv
|  2>  
|  3> 
|  4> %scf
|  5> 	MaxIter		500
|  6> 	STABPerform	True
|  7> end
|  8> 
|  9> %tddft
| 10> 	NRoots 6
| 11> end
| 12> 
| 13> * xyz 0 1
| 14>  C                 -1.18578599   -1.17301779    0.00000000
| 15>  C                 -1.22528521    0.21672485    0.00000000
| 16>  C                 -0.03021307    0.94488843    0.00000000
| 17>  C                  1.19387265    0.26897053    0.00000000
| 18>  C                  1.21998389   -1.12396818    0.00000000
| 19>  C                  0.03366349   -1.85245673    0.00000000
| 20>  H                 -2.12142076   -1.73821028    0.00000000
| 21>  H                 -2.17044776    0.76362561    0.00000000
| 22>  H                  2.12866956    0.83920121    0.00000000
| 23>  H                  2.18175171   -1.64285600    0.00000000
| 24>  H                  0.05704252   -2.94432740    0.00000000
| 25>  O                 -0.11105943    2.29589847    0.00000000
| 26>  H                  1.64049955    3.03213291    0.00000000
| 27> end
| 28> 
| 29>                          ****END OF INPUT****
================================================================================

                       ****************************
                       * Single Point Calculation *
                       ****************************

---------------------------------
CARTESIAN COORDINATES (ANGSTROEM)
---------------------------------
  C     -1.185786   -1.173018    0.000000
  C     -1.225285    0.216725    0.000000
  C     -0.030213    0.944888    0.000000
  C      1.193873    0.268971    0.000000
  C      1.219984   -1.123968    0.000000
  C      0.033663   -1.852457    0.000000
  H     -2.121421   -1.738210    0.000000
  H     -2.170448    0.763626    0.000000
  H      2.128670    0.839201    0.000000
  H      2.181752   -1.642856    0.000000
  H      0.057043   -2.944327    0.000000
  O     -0.111059    2.295898    0.000000
  H      1.640500    3.032133    0.000000

----------------------------
CARTESIAN COORDINATES (A.U.)
----------------------------
  NO LB      ZA    FRAG     MASS         X           Y           Z
   0 C     6.0000    0    12.011   -2.240811   -2.216682    0.000000
   1 C     6.0000    0    12.011   -2.315453    0.409551    0.000000
   2 C     6.0000    0    12.011   -0.057094    1.785580    0.000000
   3 C     6.0000    0    12.011    2.256092    0.508281    0.000000
   4 C     6.0000    0    12.011    2.305435   -2.123992    0.000000
   5 C     6.0000    0    12.011    0.063615   -3.500636    0.000000
   6 H     1.0000    0     1.008   -4.008904   -3.284741    0.000000
   7 H     1.0000    0     1.008   -4.101552    1.443043    0.000000
   8 H     1.0000    0     1.008    4.022602    1.585860    0.000000
   9 H     1.0000    0     1.008    4.122913   -3.104548    0.000000
  10 H     1.0000    0     1.008    0.107795   -5.563972    0.000000
  11 O     8.0000    0    15.999   -0.209872    4.338619    0.000000
  12 H     1.0000    0     1.008    3.100095    5.729901    0.000000

--------------------------------
INTERNAL COORDINATES (ANGSTROEM)
--------------------------------
 C      0   0   0     0.000000000000     0.00000000     0.00000000
 C      1   0   0     1.390303849457     0.00000000     0.00000000
 C      2   1   0     1.399435464408   119.72614521     0.00000000
 C      3   2   1     1.398302848974   119.73915203     0.00000000
 C      4   3   2     1.393183421761   119.98059071     0.00000000
 C      5   4   3     1.392139238344   120.47909682     0.00000000
 H      1   2   3     1.093094219903   119.50705551   180.00000085
 H      2   1   3     1.091985662548   121.68304388   180.00000000
 H      4   3   2     1.094992370457   119.70992277   180.00000000
 H      5   4   3     1.092813757843   119.42141969   180.00000000
 H      6   5   4     1.092120936092   120.32638097   180.00000085
 O      3   2   1     1.353426858794   117.92958877   180.00000000
 H     12   3   2     1.900000002911   109.37394531   180.00000000

---------------------------
INTERNAL COORDINATES (A.U.)
---------------------------
 C      0   0   0     0.000000000000     0.00000000     0.00000000
 C      1   0   0     2.627293518410     0.00000000     0.00000000
 C      2   1   0     2.644549769828   119.72614521     0.00000000
 C      3   2   1     2.642409436842   119.73915203     0.00000000
 C      4   3   2     2.632735121448   119.98059071     0.00000000
 C      5   4   3     2.630761900756   120.47909682     0.00000000
 H      1   2   3     2.065648714189   119.50705551   180.00000085
 H      2   1   3     2.063553844385   121.68304388   180.00000000
 H      4   3   2     2.069235698897   119.70992277   180.00000000
 H      5   4   3     2.065118717705   119.42141969   180.00000000
 H      6   5   4     2.063809474335   120.32638097   180.00000085
 O      3   2   1     2.557606105415   117.92958877   180.00000000
 H     12   3   2     3.590479659951   109.37394531   180.00000000

---------------------
BASIS SET INFORMATION
---------------------
There are 3 groups of distinct atoms

 Group   1 Type C   : 7s4p1d contracted to 3s2p1d pattern {511/31/1}
 Group   2 Type H   : 4s1p contracted to 2s1p pattern {31/1}
 Group   3 Type O   : 7s4p1d contracted to 3s2p1d pattern {511/31/1}

Atom   0C    basis set group =>   1
Atom   1C    basis set group =>   1
Atom   2C    basis set group =>   1
Atom   3C    basis set group =>   1
Atom   4C    basis set group =>   1
Atom   5C    basis set group =>   1
Atom   6H    basis set group =>   2
Atom   7H    basis set group =>   2
Atom   8H    basis set group =>   2
Atom   9H    basis set group =>   2
Atom  10H    basis set group =>   2
Atom  11O    basis set group =>   3
Atom  12H    basis set group =>   2
-------------------------------
AUXILIARY BASIS SET INFORMATION
-------------------------------
There are 3 groups of distinct atoms

 Group   1 Type C   : 14s10p6d2f1g contracted to 10s8p5d1f1g pattern {5111111111/31111111/21111/2/1}
 Group   2 Type H   : 4s2p2d contracted to 2s2p2d pattern {31/11/11}
 Group   3 Type O   : 14s10p6d2f1g contracted to 10s8p4d2f1g pattern {5111111111/31111111/3111/11/1}

Atom   0C    basis set group =>   1
Atom   1C    basis set group =>   1
Atom   2C    basis set group =>   1
Atom   3C    basis set group =>   1
Atom   4C    basis set group =>   1
Atom   5C    basis set group =>   1
Atom   6H    basis set group =>   2
Atom   7H    basis set group =>   2
Atom   8H    basis set group =>   2
Atom   9H    basis set group =>   2
Atom  10H    basis set group =>   2
Atom  11O    basis set group =>   3
Atom  12H    basis set group =>   2
------------------------------------------------------------------------------
                           ORCA GTO INTEGRAL CALCULATION
                           -- RI-GTO INTEGRALS CHOSEN --
------------------------------------------------------------------------------

                         BASIS SET STATISTICS AND STARTUP INFO

Gaussian basis set:
 # of primitive gaussian shells          ...  114
 # of primitive gaussian functions       ...  210
 # of contracted shells                  ...   60
 # of contracted basis functions         ...  128
 Highest angular momentum                ...    2
 Maximum contraction depth               ...    5
Auxiliary gaussian basis set:
 # of primitive gaussian shells          ...  279
 # of primitive gaussian functions       ...  799
 # of contracted shells                  ...  211
 # of contracted aux-basis functions     ...  635
 Highest angular momentum                ...    4
 Maximum contraction depth               ...    5
Ratio of auxiliary to basis functions    ...  4.96
Integral package used                  ... LIBINT
 One Electron integrals                  ... done
 Ordering auxiliary basis shells         ... done
 Integral threshhold             Thresh  ...  1.000e-10
 Primitive cut-off               TCut    ...  1.000e-11
 Pre-screening matrix                    ... done
 Shell pair data                         ... 
 Ordering of the shell pairs             ... done (   0.000 sec) 1763 of 1830 pairs
 Determination of significant pairs      ... done (   0.000 sec)
 Creation of shell pair data             ... done (   0.001 sec)
 Storage of shell pair data              ... done (   0.000 sec)
 Shell pair data done in (   0.002 sec)
 Computing two index integrals           ... done
 Cholesky decomposition of the V-matrix  ... done


Timings:
 Total evaluation time                   ...   0.217 sec (  0.004 min)
 One electron matrix time                ...   0.016 sec (  0.000 min) =  7.4%
 Schwartz matrix evaluation time         ...   0.148 sec (  0.002 min) = 68.4%
 Two index repulsion integral time       ...   0.015 sec (  0.000 min) =  6.7%
 Cholesky decomposition of V             ...   0.013 sec (  0.000 min) =  6.1%
 Three index repulsion integral time     ...   0.000 sec (  0.000 min) =  0.0%

-------------------------------------------------------------------------------
                                 ORCA SCF
-------------------------------------------------------------------------------

------------
SCF SETTINGS
------------
Hamiltonian:
 Density Functional     Method          .... DFT(GTOs)
 Exchange Functional    Exchange        .... WB97X-D3
 Correlation Functional Correlation     .... WB97X-D3
 Gradients option       PostSCFGGA      .... off
 Hybrid DFT is turned on
   Fraction HF Exchange ScalHFX         ....  0.195728
   Scaling of DF-GGA-X  ScalDFX         ....  0.000000
   Scaling of DF-GGA-C  ScalDFC         ....  1.000000
   Scaling of DF-LDA-C  ScalLDAC        ....  1.000000
   Perturbative correction              ....  0.000000
 Long-range corrected/Screened/Range-Separated Hybrid DFT is turned on
   Amount of maximum screened exact exchange              ....  0.804272
   Range separation parameter mu (erf(mu*r12)/r12)        ....  0.250000
 RI-approximation to the Coulomb term is turned on
   Number of auxiliary basis functions  .... 635
   RIJ-COSX (HFX calculated with COS-X)).... on


General Settings:
 Integral files         IntName         .... /scratch/ch1tk/orca.15371/wB97XD3_def2-SVP_toluene_S0_TDA6S_1-90
 Hartree-Fock type      HFTyp           .... UHF
 Total Charge           Charge          ....    0
 Multiplicity           Mult            ....    1
 Number of Electrons    NEL             ....   50
 Basis Dimension        Dim             ....  128
 Nuclear Repulsion      ENuc            ....    267.9389439308 Eh

Convergence Acceleration:
 DIIS                   CNVDIIS         .... on
   Start iteration      DIISMaxIt       ....     0
   Startup error        DIISStart       ....  0.200000
   # of expansion vecs  DIISMaxEq       ....     5
   Bias factor          DIISBfac        ....   1.050
   Max. coefficient     DIISMaxC        ....  10.000
 Newton-Raphson         CNVNR           .... off
 SOSCF                  CNVSOSCF        .... off
 Level Shifting         CNVShift        .... on
   Level shift para.    LevelShift      ....    0.2500
   Turn off err/grad.   ShiftErr        ....    0.0000
 Zerner damping         CNVZerner       .... off
 Static damping         CNVDamp         .... on
   Fraction old density DampFac         ....    0.8500
   Max. Damping (<1)    DampMax         ....    0.9800
   Min. Damping (>=0)   DampMin         ....    0.0000
   Turn off err/grad.   DampErr         ....    0.0300
 Fernandez-Rico         CNVRico         .... off

SCF Procedure:
 Maximum # iterations   MaxIter         ....   500
 SCF integral mode      SCFMode         .... Direct
   Integral package                     .... LIBINT
 Reset frequeny         DirectResetFreq ....    20
 Integral Threshold     Thresh          ....  1.000e-10 Eh
 Primitive CutOff       TCut            ....  1.000e-11 Eh

Convergence Tolerance:
 Convergence Check Mode ConvCheckMode   .... Total+1el-Energy
 Convergence forced     ConvForced      .... 1
 Energy Change          TolE            ....  1.000e-06 Eh
 1-El. energy change                    ....  1.000e-03 Eh
 DIIS Error             TolErr          ....  1.000e-06


Diagonalization of the overlap matrix:
Smallest eigenvalue                        ... 2.787e-04
Time for diagonalization                   ...    0.004 sec
Threshold for overlap eigenvalues          ... 1.000e-08
Number of eigenvalues below threshold      ... 0
Time for construction of square roots      ...    0.001 sec
Total time needed                          ...    0.005 sec

-------------------
DFT GRID GENERATION
-------------------

General Integration Accuracy     IntAcc      ...  4.340
Radial Grid Type                 RadialGrid  ... Gauss-Chebyshev
Angular Grid (max. acc.)         AngularGrid ... Lebedev-110
Angular grid pruning method      GridPruning ... 3 (G Style)
Weight generation scheme         WeightScheme... Becke
Basis function cutoff            BFCut       ...    1.0000e-10
Integration weight cutoff        WCut        ...    1.0000e-14
Grids for H and He will be reduced by one unit

# of grid points (after initial pruning)     ...  16416 (   0.0 sec)
# of grid points (after weights+screening)   ...  15357 (   0.0 sec)
nearest neighbour list constructed           ...    0.0 sec
Grid point re-assignment to atoms done       ...    0.0 sec
Grid point division into batches done        ...    0.0 sec
Reduced shell lists constructed in    0.3 sec

Total number of grid points                  ...    15357
Total number of batches                      ...      246
Average number of points per batch           ...       62
Average number of grid points per atom       ...     1181
Average number of shells per batch           ...    44.23 (73.71%)
Average number of basis functions per batch  ...    94.02 (73.45%)
Average number of large shells per batch     ...    35.65 (80.60%)
Average number of large basis fcns per batch ...    74.84 (79.60%)
Maximum spatial batch extension              ...  20.79, 16.74, 25.60 au
Average spatial batch extension              ...   3.97,  3.58,  5.43 au

Time for grid setup =    0.314 sec

------------------------------
INITIAL GUESS: MODEL POTENTIAL
------------------------------
Loading Hartree-Fock densities                     ... done
Calculating cut-offs                               ... done
Setting up the integral package                    ... done
Initializing the effective Hamiltonian             ... done
Starting the Coulomb interaction                   ... done (   0.1 sec)
Reading the grid                                   ... done
Mapping shells                                     ... done
Starting the XC term evaluation                    ... done (   0.3 sec)
  promolecular density results
     # of electrons  =     50.000293381
     EX              =    -40.504847147
     EC              =     -1.635916704
     EX+EC           =    -42.140763852
Transforming the Hamiltonian                       ... done (   0.0 sec)
Diagonalizing the Hamiltonian                      ... done (   0.0 sec)
Back transforming the eigenvectors                 ... done (   0.0 sec)
Now organizing SCF variables                       ... done
                      ------------------
                      INITIAL GUESS DONE (   0.8 sec)
                      ------------------
--------------------
COSX GRID GENERATION
--------------------

General Integration Accuracy     IntAcc      ...  3.340
Radial Grid Type                 RadialGrid  ... Gauss-Chebyshev
Angular Grid (max. acc.)         AngularGrid ... Lebedev-50
Angular grid pruning method      GridPruning ... 3 (G Style)
Weight generation scheme         WeightScheme... Becke
Basis function cutoff            BFCut       ...    1.0000e-10
Integration weight cutoff        WCut        ...    1.0000e-14
Grids for H and He will be reduced by one unit

# of grid points (after initial pruning)     ...   5980 (   0.0 sec)
# of grid points (after weights+screening)   ...   5661 (   0.0 sec)
nearest neighbour list constructed           ...    0.0 sec
Grid point re-assignment to atoms done       ...    0.0 sec
Grid point division into batches done        ...    0.0 sec
Reduced shell lists constructed in    0.1 sec

Total number of grid points                  ...     5661
Total number of batches                      ...       95
Average number of points per batch           ...       59
Average number of grid points per atom       ...      435
Average number of shells per batch           ...    47.04 (78.40%)
Average number of basis functions per batch  ...   100.77 (78.73%)
Average number of large shells per batch     ...    38.85 (82.60%)
Average number of large basis fcns per batch ...    82.79 (82.16%)
Maximum spatial batch extension              ...  16.61, 14.62, 35.81 au
Average spatial batch extension              ...   4.88,  4.76,  7.45 au

Overlap Fitting                  UseSFitting ... on
Constructing numerical overlap ... done (      0.1 sec)
Inverting numerical overlap    ... done (      0.0 sec)
Obtaining analytic overlap     ... done (      0.0 sec)
Final contraction and storage  ... done (      0.0 sec)


General Integration Accuracy     IntAcc      ...  3.670
Radial Grid Type                 RadialGrid  ... Gauss-Chebyshev
Angular Grid (max. acc.)         AngularGrid ... Lebedev-50
Angular grid pruning method      GridPruning ... 3 (G Style)
Weight generation scheme         WeightScheme... Becke
Basis function cutoff            BFCut       ...    1.0000e-10
Integration weight cutoff        WCut        ...    1.0000e-14
Grids for H and He will be reduced by one unit

# of grid points (after initial pruning)     ...   7582 (   0.0 sec)
# of grid points (after weights+screening)   ...   7155 (   0.0 sec)
nearest neighbour list constructed           ...    0.0 sec
Grid point re-assignment to atoms done       ...    0.0 sec
Grid point division into batches done        ...    0.0 sec
Reduced shell lists constructed in    0.1 sec

Total number of grid points                  ...     7155
Total number of batches                      ...      117
Average number of points per batch           ...       61
Average number of grid points per atom       ...      550
Average number of shells per batch           ...    46.47 (77.46%)
Average number of basis functions per batch  ...    99.14 (77.45%)
Average number of large shells per batch     ...    37.75 (81.22%)
Average number of large basis fcns per batch ...    79.66 (80.36%)
Maximum spatial batch extension              ...  17.81, 16.68, 27.71 au
Average spatial batch extension              ...   4.45,  4.26,  7.04 au

Overlap Fitting                  UseSFitting ... on
Constructing numerical overlap ... done (      0.1 sec)
Inverting numerical overlap    ... done (      0.0 sec)
Obtaining analytic overlap     ... done (      0.0 sec)
Final contraction and storage  ... done (      0.0 sec)


General Integration Accuracy     IntAcc      ...  4.010
Radial Grid Type                 RadialGrid  ... Gauss-Chebyshev
Angular Grid (max. acc.)         AngularGrid ... Lebedev-110
Angular grid pruning method      GridPruning ... 3 (G Style)
Weight generation scheme         WeightScheme... Becke
Basis function cutoff            BFCut       ...    1.0000e-10
Integration weight cutoff        WCut        ...    1.0000e-14
Grids for H and He will be reduced by one unit

# of grid points (after initial pruning)     ...  14238 (   0.0 sec)
# of grid points (after weights+screening)   ...  13331 (   0.0 sec)
nearest neighbour list constructed           ...    0.0 sec
Grid point re-assignment to atoms done       ...    0.0 sec
Grid point division into batches done        ...    0.0 sec
Reduced shell lists constructed in    0.2 sec

Total number of grid points                  ...    13331
Total number of batches                      ...      214
Average number of points per batch           ...       62
Average number of grid points per atom       ...     1025
Average number of shells per batch           ...    44.80 (74.66%)
Average number of basis functions per batch  ...    95.28 (74.44%)
Average number of large shells per batch     ...    36.15 (80.70%)
Average number of large basis fcns per batch ...    75.80 (79.56%)
Maximum spatial batch extension              ...  20.77, 15.92, 31.02 au
Average spatial batch extension              ...   4.11,  3.61,  5.51 au

Overlap Fitting                  UseSFitting ... on
Constructing numerical overlap ... done (      0.1 sec)
Inverting numerical overlap    ... done (      0.0 sec)
Obtaining analytic overlap     ... done (      0.0 sec)
Final contraction and storage  ... done (      0.0 sec)

Time for X-Grid setup             =    0.834 sec
--------------
SCF ITERATIONS
--------------
ITER       Energy         Delta-E        Max-DP      RMS-DP      [F,P]     Damp
               ***  Starting incremental Fock matrix formation  ***
  0   -306.7141789667   0.000000000000 0.02877618  0.00079131  0.2759427 0.8500
  1   -306.7761986455  -0.062019678768 0.02982355  0.00077475  0.2242430 0.8500
                               ***Turning on DIIS***
  2   -306.8212954715  -0.045096826077 0.02417322  0.00063053  0.1604694 0.8500
  3   -306.8513249918  -0.030029520219 0.01300976  0.00043897  0.1061916 0.8500
  4   -306.8735593813  -0.022234389592 0.00769576  0.00032996  0.0818621 0.8500
  5   -306.8908822979  -0.017322916537 0.00593368  0.00026224  0.0704171 0.8500
  6   -306.9050644814  -0.014182183504 0.00520095  0.00021690  0.0621683 0.8500
  7   -306.9169424585  -0.011877977065 0.00504874  0.00018484  0.0545369 0.8500
  8   -306.9270134735  -0.010071015011 0.00439866  0.00015937  0.0460782 0.8500
  9   -306.9355117182  -0.008498244704 0.00356480  0.00013693  0.0386430 0.8500
 10   -306.9426769026  -0.007165184395 0.00296286  0.00011703  0.0329957 0.8500
 11   -306.9487350788  -0.006058176194 0.01724342  0.00066459  0.0284869 0.0000
 12   -306.9827662384  -0.034031159674 0.00068124  0.00002369  0.0012726 0.0000
 13   -306.9827769282  -0.000010689741 0.00058439  0.00001373  0.0012055 0.0000
               *** Restarting incremental Fock matrix formation ***
                                   *** Resetting DIIS ***
 14   -306.9827938881  -0.000016959953 0.00049834  0.00000978  0.0009223 0.0000
 15   -306.9827954506  -0.000001562468 0.00022973  0.00000502  0.0006483 0.0000
                 **** Energy Check signals convergence ****

               *****************************************************
               *                     SUCCESS                       *
               *           SCF CONVERGED AFTER  16 CYCLES          *
               *****************************************************


------------------------------------------------------------------------------
                          SCF STABILITY ANALYSIS                              
------------------------------------------------------------------------------


---------------
TD-DFT XC SETUP
---------------

DFT calculation                         ... on
Name of the grid file                   ... /scratch/ch1tk/orca.15371/wB97XD3_def2-SVP_toluene_S0_TDA6S_1-90.grid.tmp
Exchange functional (SCF)               ... WB97X-D3
Exchange functional (TD-DFT)            ... WB97X-D3
Correlation functional (SCF)            ... WB97X-D3
Correlation functional (TD-DFT)         ... WB97X-D3
Hybrid DFT                              ... on
   Exchange mixing (SCF)                ...  0.196
   Exchange mixing (TD-DFT)             ...  0.196
   GGA exch. scaling(SCF)               ...  0.000
   GGA exch. scaling (TD-DFT)           ...  0.000
   GGA corr. scaling (SCF)              ...  1.000
   GGA corr. scaling (TD-DFT)           ...  1.000
Range-Separated Exchange                ... on
   Range Range separation parameter mu  .... 0.250
   Max. amount of RS exchange (SCF)     ...  0.804
   Max. amount of RS exchange (TD-DFT)  ...  0.804

Electron density on the grid   ... found on disk
Building xc-kernel on the grid ... done
                    *** TD-DFT CALCULATION INITIALIZED ***

                       ****Iteration    0****

   Memory handling for direct AO based CIS:
   Memory per vector needed      ...     1 MB
   Memory needed                 ...     7 MB
   Memory available              ...  1024 MB
   Number of vectors per batch   ...   783
   Number of batches             ...     1
   Time for densities:     0.007
   Time for XC-Integration:     1.445
   Time for K (COSX):    10.177
   Time for RI-J (Direct):     1.554
   Time for Sigma-Completion:     0.027
   Lowest Energy          :     0.002781409256
   Maximum Energy change  :     0.043086292624 (vector 2)
   Maximum residual norm  :     0.023473185070

                       ****Iteration    1****
   Time for densities:     0.003
   Time for XC-Integration:     0.839
   Time for K (COSX):     9.841
   Time for RI-J (Direct):     0.801
   Time for Sigma-Completion:     0.014
   Lowest Energy          :    -0.066631343393
   Maximum Energy change  :     0.069412752649 (vector 0)
   Maximum residual norm  :     0.001438464801

                       ****Iteration    2****
   Time for densities:     0.004
   Time for XC-Integration:     0.847
   Time for K (COSX):     9.952
   Time for RI-J (Direct):     0.820
   Time for Sigma-Completion:     0.014
   Lowest Energy          :    -0.069191775958
   Maximum Energy change  :     0.002560432565 (vector 0)
   Maximum residual norm  :     0.000119366749

                       ****Iteration    3****
   Time for densities:     0.004
   Time for XC-Integration:     0.854
   Time for K (COSX):     9.865
   Time for RI-J (Direct):     0.825
   Time for Sigma-Completion:     0.014
   Lowest Energy          :    -0.069302056203
   Maximum Energy change  :     0.000169806117 (vector 2)
   Maximum residual norm  :     0.000011584575

      *** CONVERGENCE OF RESIDUAL NORM REACHED ***

----------------------------- 
SCF STABILITY ANALYSIS RESULT 
----------------------------- 

UHF/UKS->UHF/UKS - singlet - internal

   Root    Eigenvalue (au) 
     0      -0.069302 
     1      -0.002928 
     2       0.031743 

Stability Analysis indicates an UNSTABLE HF/KS wave function with SEVERAL negative eigenvalues.

Since this is UHF/UKS, we will restart the SCF using a new guess based on the eigenvector 
associated with the lowest eigenvalue. Because there is no guarantee that the restart     
will result in a stable solution, the user should check the stability of the resulting    
wave function in a separate calculation using the MOREAD guess feature.

Obtain new guess               ... done 

Total time for performing the stability analysis:    47.950sec

--------------------------
SCF ITERATIONS (restarted)
--------------------------
ITER       Energy         Delta-E        Max-DP      RMS-DP      [F,P]     Damp
               ***  Starting incremental Fock matrix formation  ***
  0   -306.9916221739   0.000000000000 0.00131104  0.00002646  0.0096942 0.8500
  1   -306.9917309109  -0.000108737017 0.00146313  0.00003114  0.0078754 0.8500
                               ***Turning on DIIS***
  2   -306.9918456613  -0.000114750324 0.00944337  0.00020423  0.0062197 0.0000
  3   -306.9928385530  -0.000992891781 0.00492065  0.00008045  0.0038490 0.0000
  4   -306.9931817556  -0.000343202593 0.00525831  0.00009968  0.0021528 0.0000
  5   -306.9935866761  -0.000404920516 0.00474775  0.00008702  0.0013322 0.0000
  6   -306.9938978255  -0.000311149320 0.00626236  0.00011229  0.0010379 0.0000
  7   -306.9942276273  -0.000329801881 0.00523204  0.00009251  0.0005832 0.0000
  8   -306.9944285927  -0.000200965301 0.00315019  0.00005734  0.0003787 0.0000
  9   -306.9945177415  -0.000089148891 0.00375199  0.00007042  0.0002833 0.0000
 10   -306.9945865339  -0.000068792322 0.00128381  0.00002621  0.0004467 0.0000
 11   -306.9946012559  -0.000014721987 0.00153395  0.00003107  0.0002659 0.0000
 12   -306.9946100407  -0.000008784872 0.00053526  0.00001070  0.0003203 0.0000
 13   -306.9946112853  -0.000001244609 0.00038512  0.00000764  0.0001861 0.0000
 14   -306.9946114809  -0.000000195555 0.00012195  0.00000247  0.0001282 0.0000
                 **** Energy Check signals convergence ****

               *****************************************************
               *                     SUCCESS                       *
               *           SCF CONVERGED AFTER  15 CYCLES          *
               *****************************************************

Setting up the final grid:

General Integration Accuracy     IntAcc      ...  4.670
Radial Grid Type                 RadialGrid  ... Gauss-Chebyshev
Angular Grid (max. acc.)         AngularGrid ... Lebedev-302
Angular grid pruning method      GridPruning ... 3 (G Style)
Weight generation scheme         WeightScheme... Becke
Basis function cutoff            BFCut       ...    1.0000e-10
Integration weight cutoff        WCut        ...    1.0000e-14
Grids for H and He will be reduced by one unit

# of grid points (after initial pruning)     ...  63848 (   0.0 sec)
# of grid points (after weights+screening)   ...  59106 (   0.1 sec)
nearest neighbour list constructed           ...    0.0 sec
Grid point re-assignment to atoms done       ...    0.0 sec
Grid point division into batches done        ...    0.2 sec
Reduced shell lists constructed in    1.0 sec

Total number of grid points                  ...    59106
Total number of batches                      ...      929
Average number of points per batch           ...       63
Average number of grid points per atom       ...     4547
Average number of shells per batch           ...    40.13 (66.88%)
Average number of basis functions per batch  ...    84.82 (66.27%)
Average number of large shells per batch     ...    31.67 (78.91%)
Average number of large basis fcns per batch ...    65.89 (77.68%)
Maximum spatial batch extension              ...  15.95, 16.67, 23.18 au
Average spatial batch extension              ...   2.59,  2.49,  3.07 au

Final grid set up in    1.1 sec
Final integration                            ... done (   1.4 sec)
Change in XC energy                          ...     0.001009548
Integrated number of electrons               ...    49.999830806
Previous integrated no of electrons          ...    49.998822513
Old exchange energy                            =    -13.413069156 Eh
New exchange energy                            =    -13.413318342 Eh
Exchange energy change after final integration =     -0.000249185 Eh
Total energy after final integration           =   -306.993851117 Eh
Final COS-X integration done in                =     8.864 sec

----------------
TOTAL SCF ENERGY
----------------

Total Energy       :         -306.99385112 Eh           -8353.72738 eV

Components:
Nuclear Repulsion  :          267.93894393 Eh            7290.98933 eV
Electronic Energy  :         -574.93279505 Eh          -15644.71672 eV
One Electron Energy:         -945.60217274 Eh          -25731.14327 eV
Two Electron Energy:          370.66937769 Eh           10086.42655 eV

Virial components:
Potential Energy   :         -610.73265908 Eh          -16618.88054 eV
Kinetic Energy     :          303.73880796 Eh            8265.15316 eV
Virial Ratio       :            2.01071659


DFT components:
N(Alpha)           :       24.999896790072 electrons
N(Beta)            :       24.999934016074 electrons
N(Total)           :       49.999830806146 electrons
E(XC)              :      -29.661145178250 Eh       

---------------
SCF CONVERGENCE
---------------

  Last Energy change         ...    1.0334e-09  Tolerance :   1.0000e-06
  Last MAX-Density change    ...    0.0000e+00  Tolerance :   1.0000e-05
  Last RMS-Density change    ...    0.0000e+00  Tolerance :   1.0000e-06
  Last DIIS Error            ...    6.3009e-05  Tolerance :   1.0000e-06

             **** THE GBW FILE WAS UPDATED (/scratch/ch1tk/orca.15371/wB97XD3_def2-SVP_toluene_S0_TDA6S_1-90.gbw) ****
             **** DENSITY FILE WAS UPDATED (/scratch/ch1tk/orca.15371/wB97XD3_def2-SVP_toluene_S0_TDA6S_1-90.scfp.tmp) ****
             **** ENERGY FILE WAS UPDATED (/scratch/ch1tk/orca.15371/wB97XD3_def2-SVP_toluene_S0_TDA6S_1-90.en.tmp) ****

     --------------------------------------------------------------------
                                      WARNING
     A stability analysis of the first UHF/UKS SCF solution was performed
     and an instability detected. The result was used as a guess for
     a second SCF, which has converged. There is no guarantee that the
     current solution is stable - it is up to you to rerun the stability
     analysis using the now stored solution as a guess and verify.
     --------------------------------------------------------------------

----------------------
UHF SPIN CONTAMINATION
----------------------

Warning: in a DFT calculation there is little theoretical justification to 
         calculate <S**2> as in Hartree-Fock theory. We will do it anyways
         but you should keep in mind that the values have only limited relevance

Expectation value of <S**2>     :     0.571203
Ideal value S*(S+1) for S=0.0   :     0.000000
Deviation                       :     0.571203

----------------
ORBITAL ENERGIES
----------------
                 SPIN UP ORBITALS
  NO   OCC          E(Eh)            E(eV) 
   0   1.0000     -19.310211      -525.4576 
   1   1.0000     -10.357857      -281.8516 
   2   1.0000     -10.301571      -280.3200 
   3   1.0000     -10.301232      -280.3108 
   4   1.0000     -10.298416      -280.2342 
   5   1.0000     -10.297508      -280.2094 
   6   1.0000     -10.289548      -279.9928 
   7   1.0000      -1.153273       -31.3822 
   8   1.0000      -0.967283       -26.3211 
   9   1.0000      -0.863813       -23.5055 
  10   1.0000      -0.842928       -22.9372 
  11   1.0000      -0.726419       -19.7669 
  12   1.0000      -0.698835       -19.0163 
  13   1.0000      -0.625273       -17.0145 
  14   1.0000      -0.586698       -15.9649 
  15   1.0000      -0.571948       -15.5635 
  16   1.0000      -0.535785       -14.5795 
  17   1.0000      -0.526808       -14.3352 
  18   1.0000      -0.523930       -14.2569 
  19   1.0000      -0.481786       -13.1101 
  20   1.0000      -0.461459       -12.5569 
  21   1.0000      -0.445163       -12.1135 
  22   1.0000      -0.432852       -11.7785 
  23   1.0000      -0.348783        -9.4909 
  24   1.0000      -0.314129        -8.5479 
  25   0.0000      -0.037081        -1.0090 
  26   0.0000       0.062986         1.7139 
  27   0.0000       0.081528         2.2185 
  28   0.0000       0.147436         4.0119 
  29   0.0000       0.186973         5.0878 
  30   0.0000       0.202814         5.5189 
  31   0.0000       0.233047         6.3415 
  32   0.0000       0.241919         6.5830 
  33   0.0000       0.250995         6.8299 
  34   0.0000       0.300825         8.1859 
  35   0.0000       0.357043         9.7156 
  36   0.0000       0.374535        10.1916 
  37   0.0000       0.385785        10.4977 
  38   0.0000       0.413618        11.2551 
  39   0.0000       0.445176        12.1138 
  40   0.0000       0.500001        13.6057 
  41   0.0000       0.500149        13.6097 
  42   0.0000       0.525296        14.2940 
  43   0.0000       0.534041        14.5320 
  44   0.0000       0.561050        15.2670 
  45   0.0000       0.581767        15.8307 
  46   0.0000       0.596952        16.2439 
  47   0.0000       0.630784        17.1645 
  48   0.0000       0.631328        17.1793 
  49   0.0000       0.637112        17.3367 
  50   0.0000       0.659005        17.9324 
  51   0.0000       0.675574        18.3833 
  52   0.0000       0.698289        19.0014 
  53   0.0000       0.707658        19.2563 
  54   0.0000       0.731771        19.9125 
  55   0.0000       0.747493        20.3403 
  56   0.0000       0.764805        20.8114 
  57   0.0000       0.783896        21.3309 
  58   0.0000       0.804593        21.8941 
  59   0.0000       0.817642        22.2492 
  60   0.0000       0.832714        22.6593 
  61   0.0000       0.838609        22.8197 
  62   0.0000       0.868338        23.6287 
  63   0.0000       0.898668        24.4540 
  64   0.0000       0.909209        24.7408 
  65   0.0000       0.959895        26.1201 
  66   0.0000       1.015492        27.6329 
  67   0.0000       1.077136        29.3104 
  68   0.0000       1.109895        30.2018 
  69   0.0000       1.154721        31.4215 
  70   0.0000       1.191254        32.4157 
  71   0.0000       1.274882        34.6913 
  72   0.0000       1.310579        35.6627 
  73   0.0000       1.330696        36.2101 
  74   0.0000       1.334138        36.3037 
  75   0.0000       1.363366        37.0991 
  76   0.0000       1.370083        37.2819 
  77   0.0000       1.394264        37.9399 
  78   0.0000       1.509924        41.0871 
  79   0.0000       1.546863        42.0923 
  80   0.0000       1.571730        42.7689 
  81   0.0000       1.581437        43.0331 
  82   0.0000       1.602824        43.6151 
  83   0.0000       1.753383        47.7120 
  84   0.0000       1.760100        47.8948 
  85   0.0000       1.786724        48.6192 
  86   0.0000       1.828381        49.7528 
  87   0.0000       1.841339        50.1054 
  88   0.0000       1.841995        50.1232 
  89   0.0000       1.861674        50.6587 
  90   0.0000       1.882567        51.2273 
  91   0.0000       1.895207        51.5712 
  92   0.0000       1.896140        51.5966 
  93   0.0000       1.913511        52.0693 
  94   0.0000       1.966460        53.5101 
  95   0.0000       2.000958        54.4488 
  96   0.0000       2.042331        55.5747 
  97   0.0000       2.072115        56.3851 
  98   0.0000       2.078747        56.5656 
  99   0.0000       2.133040        58.0430 
 100   0.0000       2.193155        59.6788 
 101   0.0000       2.229742        60.6744 
 102   0.0000       2.247123        61.1473 
 103   0.0000       2.286147        62.2092 
 104   0.0000       2.309438        62.8430 
 105   0.0000       2.355790        64.1043 
 106   0.0000       2.356837        64.1328 
 107   0.0000       2.402252        65.3686 
 108   0.0000       2.437950        66.3400 
 109   0.0000       2.443653        66.4952 
 110   0.0000       2.600495        70.7631 
 111   0.0000       2.626443        71.4692 
 112   0.0000       2.647159        72.0329 
 113   0.0000       2.673682        72.7546 
 114   0.0000       2.733763        74.3895 
 115   0.0000       2.761649        75.1483 
 116   0.0000       2.780111        75.6507 
 117   0.0000       2.823220        76.8237 
 118   0.0000       2.824698        76.8639 
 119   0.0000       2.947120        80.1952 
 120   0.0000       2.977052        81.0097 
 121   0.0000       3.062212        83.3270 
 122   0.0000       3.097544        84.2885 
 123   0.0000       3.112989        84.7087 
 124   0.0000       3.247508        88.3692 
 125   0.0000       3.438736        93.5728 
 126   0.0000       3.479391        94.6790 
 127   0.0000       3.784941       102.9935 

                 SPIN DOWN ORBITALS
  NO   OCC          E(Eh)            E(eV) 
   0   1.0000     -19.296374      -525.0810 
   1   1.0000     -10.358105      -281.8584 
   2   1.0000     -10.301448      -280.3167 
   3   1.0000     -10.301259      -280.3115 
   4   1.0000     -10.298101      -280.2256 
   5   1.0000     -10.296687      -280.1871 
   6   1.0000     -10.289619      -279.9948 
   7   1.0000      -1.112294       -30.2671 
   8   1.0000      -0.963543       -26.2193 
   9   1.0000      -0.862550       -23.4712 
  10   1.0000      -0.837194       -22.7812 
  11   1.0000      -0.721329       -19.6284 
  12   1.0000      -0.695067       -18.9137 
  13   1.0000      -0.621282       -16.9059 
  14   1.0000      -0.572370       -15.5750 
  15   1.0000      -0.566386       -15.4121 
  16   1.0000      -0.530763       -14.4428 
  17   1.0000      -0.526352       -14.3228 
  18   1.0000      -0.515934       -14.0393 
  19   1.0000      -0.463218       -12.6048 
  20   1.0000      -0.449760       -12.2386 
  21   1.0000      -0.437395       -11.9021 
  22   1.0000      -0.418983       -11.4011 
  23   1.0000      -0.348653        -9.4873 
  24   1.0000      -0.307894        -8.3782 
  25   0.0000      -0.066787        -1.8174 
  26   0.0000       0.063495         1.7278 
  27   0.0000       0.082481         2.2444 
  28   0.0000       0.147914         4.0250 
  29   0.0000       0.186876         5.0852 
  30   0.0000       0.203355         5.5336 
  31   0.0000       0.233400         6.3511 
  32   0.0000       0.241203         6.5635 
  33   0.0000       0.251248         6.8368 
  34   0.0000       0.306531         8.3411 
  35   0.0000       0.356285         9.6950 
  36   0.0000       0.374825        10.1995 
  37   0.0000       0.386424        10.5151 
  38   0.0000       0.417664        11.3652 
  39   0.0000       0.445957        12.1351 
  40   0.0000       0.499504        13.5922 
  41   0.0000       0.501062        13.6346 
  42   0.0000       0.522421        14.2158 
  43   0.0000       0.535695        14.5770 
  44   0.0000       0.547686        14.9033 
  45   0.0000       0.561316        15.2742 
  46   0.0000       0.587300        15.9812 
  47   0.0000       0.600210        16.3325 
  48   0.0000       0.631199        17.1758 
  49   0.0000       0.633568        17.2403 
  50   0.0000       0.637545        17.3485 
  51   0.0000       0.678078        18.4514 
  52   0.0000       0.698782        19.0148 
  53   0.0000       0.707766        19.2593 
  54   0.0000       0.733511        19.9598 
  55   0.0000       0.747597        20.3431 
  56   0.0000       0.765610        20.8333 
  57   0.0000       0.784225        21.3398 
  58   0.0000       0.805397        21.9160 
  59   0.0000       0.817810        22.2537 
  60   0.0000       0.833077        22.6692 
  61   0.0000       0.839167        22.8349 
  62   0.0000       0.868516        23.6335 
  63   0.0000       0.900688        24.5090 
  64   0.0000       0.912023        24.8174 
  65   0.0000       0.960060        26.1246 
  66   0.0000       1.017291        27.6819 
  67   0.0000       1.084747        29.5175 
  68   0.0000       1.111318        30.2405 
  69   0.0000       1.161431        31.6041 
  70   0.0000       1.192058        32.4376 
  71   0.0000       1.274557        34.6825 
  72   0.0000       1.312202        35.7068 
  73   0.0000       1.331581        36.2342 
  74   0.0000       1.334156        36.3042 
  75   0.0000       1.362255        37.0689 
  76   0.0000       1.368972        37.2516 
  77   0.0000       1.394311        37.9411 
  78   0.0000       1.450355        39.4662 
  79   0.0000       1.515398        41.2361 
  80   0.0000       1.551555        42.2200 
  81   0.0000       1.566140        42.6168 
  82   0.0000       1.586747        43.1776 
  83   0.0000       1.753569        47.7170 
  84   0.0000       1.758681        47.8561 
  85   0.0000       1.786844        48.6225 
  86   0.0000       1.826398        49.6988 
  87   0.0000       1.841431        50.1079 
  88   0.0000       1.842100        50.1261 
  89   0.0000       1.861995        50.6674 
  90   0.0000       1.876556        51.0637 
  91   0.0000       1.893708        51.5304 
  92   0.0000       1.896537        51.6074 
  93   0.0000       1.896590        51.6089 
  94   0.0000       1.949861        53.0584 
  95   0.0000       2.000024        54.4234 
  96   0.0000       2.042343        55.5750 
  97   0.0000       2.072314        56.3905 
  98   0.0000       2.078895        56.5696 
  99   0.0000       2.135580        58.1121 
 100   0.0000       2.193877        59.6984 
 101   0.0000       2.230099        60.6841 
 102   0.0000       2.246393        61.1275 
 103   0.0000       2.287539        62.2471 
 104   0.0000       2.310878        62.8822 
 105   0.0000       2.360324        64.2277 
 106   0.0000       2.361237        64.2525 
 107   0.0000       2.402727        65.3815 
 108   0.0000       2.438493        66.3548 
 109   0.0000       2.444938        66.5301 
 110   0.0000       2.601070        70.7787 
 111   0.0000       2.640414        71.8493 
 112   0.0000       2.679362        72.9091 
 113   0.0000       2.686989        73.1167 
 114   0.0000       2.739794        74.5536 
 115   0.0000       2.805203        76.3335 
 116   0.0000       2.807535        76.3969 
 117   0.0000       2.823495        76.8312 
 118   0.0000       2.825802        76.8940 
 119   0.0000       2.949261        80.2535 
 120   0.0000       2.977735        81.0283 
 121   0.0000       3.072558        83.6086 
 122   0.0000       3.103273        84.4444 
 123   0.0000       3.119340        84.8816 
 124   0.0000       3.251376        88.4744 
 125   0.0000       3.456175        94.0473 
 126   0.0000       3.496972        95.1574 
 127   0.0000       3.790690       103.1499 

                    ********************************
                    * MULLIKEN POPULATION ANALYSIS *
                    ********************************

--------------------------------------------
MULLIKEN ATOMIC CHARGES AND SPIN POPULATIONS
--------------------------------------------
   0 C :   -0.008355    0.005719
   1 C :   -0.067780    0.032870
   2 C :    0.217777   -0.032696
   3 C :   -0.087080    0.010486
   4 C :   -0.013319    0.001226
   5 C :   -0.034034   -0.007801
   6 H :    0.028036    0.002426
   7 H :    0.024611   -0.000560
   8 H :   -0.003113    0.003439
   9 H :    0.025138    0.001656
  10 H :    0.020869    0.000159
  11 O :   -0.229414    0.706629
  12 H :    0.126662   -0.723554
Sum of atomic charges         :   -0.0000000
Sum of atomic spin populations:    0.0000000

-----------------------------------------------------
MULLIKEN REDUCED ORBITAL CHARGES AND SPIN POPULATIONS
-----------------------------------------------------
CHARGE
  0 C s       :     3.149338  s :     3.149338
      pz      :     0.965462  p :     2.822807
      px      :     0.919881
      py      :     0.937463
      dz2     :     0.002561  d :     0.036209
      dxz     :     0.003859
      dyz     :     0.006797
      dx2y2   :     0.011119
      dxy     :     0.011873
  1 C s       :     3.203109  s :     3.203109
      pz      :     1.063944  p :     2.831819
      px      :     0.880010
      py      :     0.887866
      dz2     :     0.002699  d :     0.032851
      dxz     :     0.003407
      dyz     :     0.005402
      dx2y2   :     0.008709
      dxy     :     0.012635
  2 C s       :     2.951536  s :     2.951536
      pz      :     0.951922  p :     2.755828
      px      :     1.016199
      py      :     0.787707
      dz2     :     0.005494  d :     0.074859
      dxz     :     0.007614
      dyz     :     0.019732
      dx2y2   :     0.024867
      dxy     :     0.017152
  3 C s       :     3.196799  s :     3.196799
      pz      :     1.080105  p :     2.857392
      px      :     0.852832
      py      :     0.924454
      dz2     :     0.002695  d :     0.032889
      dxz     :     0.003492
      dyz     :     0.005268
      dx2y2   :     0.009077
      dxy     :     0.012357
  4 C s       :     3.150564  s :     3.150564
      pz      :     0.965259  p :     2.826604
      px      :     0.915553
      py      :     0.945792
      dz2     :     0.002572  d :     0.036151
      dxz     :     0.003702
      dyz     :     0.006996
      dx2y2   :     0.011383
      dxy     :     0.011498
  5 C s       :     3.143548  s :     3.143548
      pz      :     1.033108  p :     2.856153
      px      :     0.954271
      py      :     0.868774
      dz2     :     0.002559  d :     0.034333
      dxz     :     0.006241
      dyz     :     0.002533
      dx2y2   :     0.012390
      dxy     :     0.010611
  6 H s       :     0.949378  s :     0.949378
      pz      :     0.004411  p :     0.022585
      px      :     0.011713
      py      :     0.006461
  7 H s       :     0.952458  s :     0.952458
      pz      :     0.004857  p :     0.022930
      px      :     0.011953
      py      :     0.006121
  8 H s       :     0.979908  s :     0.979908
      pz      :     0.005080  p :     0.023205
      px      :     0.011717
      py      :     0.006407
  9 H s       :     0.952310  s :     0.952310
      pz      :     0.004444  p :     0.022552
      px      :     0.012185
      py      :     0.005923
 10 H s       :     0.956105  s :     0.956105
      pz      :     0.004877  p :     0.023026
      px      :     0.003047
      py      :     0.015102
 11 O s       :     3.850321  s :     3.850321
      pz      :     1.838206  p :     4.367236
      px      :     1.176765
      py      :     1.352265
      dz2     :     0.001657  d :     0.011857
      dxz     :     0.000068
      dyz     :     0.002888
      dx2y2   :     0.004864
      dxy     :     0.002379
 12 H s       :     0.870992  s :     0.870992
      pz      :     0.000325  p :     0.002346
      px      :     0.001507
      py      :     0.000514

SPIN
  0 C s       :     0.000650  s :     0.000650
      pz      :     0.000969  p :     0.004994
      px      :    -0.000201
      py      :     0.004226
      dz2     :     0.000004  d :     0.000075
      dxz     :    -0.000026
      dyz     :    -0.000065
      dx2y2   :     0.000019
      dxy     :     0.000143
  1 C s       :     0.010681  s :     0.010681
      pz      :    -0.002253  p :     0.022052
      px      :     0.013308
      py      :     0.010997
      dz2     :     0.000032  d :     0.000137
      dxz     :     0.000083
      dyz     :     0.000005
      dx2y2   :    -0.000046
      dxy     :     0.000064
  2 C s       :    -0.009481  s :    -0.009481
      pz      :    -0.000600  p :    -0.030466
      px      :    -0.012786
      py      :    -0.017080
      dz2     :     0.000039  d :     0.007250
      dxz     :     0.000036
      dyz     :    -0.000377
      dx2y2   :    -0.000040
      dxy     :     0.007593
  3 C s       :     0.003053  s :     0.003053
      pz      :    -0.004533  p :     0.007545
      px      :     0.010823
      py      :     0.001255
      dz2     :     0.000028  d :    -0.000112
      dxz     :     0.000079
      dyz     :     0.000009
      dx2y2   :    -0.000226
      dxy     :    -0.000003
  4 C s       :    -0.000101  s :    -0.000101
      pz      :     0.000872  p :     0.001308
      px      :     0.000199
      py      :     0.000238
      dz2     :    -0.000002  d :     0.000019
      dxz     :    -0.000024
      dyz     :    -0.000091
      dx2y2   :     0.000001
      dxy     :     0.000134
  5 C s       :    -0.000866  s :    -0.000866
      pz      :    -0.006356  p :    -0.006967
      px      :    -0.000412
      py      :    -0.000199
      dz2     :     0.000017  d :     0.000032
      dxz     :    -0.000005
      dyz     :     0.000010
      dx2y2   :    -0.000025
      dxy     :     0.000035
  6 H s       :     0.002431  s :     0.002431
      pz      :     0.000009  p :    -0.000005
      px      :     0.000009
      py      :    -0.000023
  7 H s       :    -0.000564  s :    -0.000564
      pz      :    -0.000026  p :     0.000005
      px      :     0.000055
      py      :    -0.000024
  8 H s       :     0.003847  s :     0.003847
      pz      :    -0.000049  p :    -0.000408
      px      :    -0.000085
      py      :    -0.000274
  9 H s       :     0.001659  s :     0.001659
      pz      :     0.000008  p :    -0.000003
      px      :     0.000002
      py      :    -0.000012
 10 H s       :     0.000208  s :     0.000208
      pz      :    -0.000044  p :    -0.000049
      px      :    -0.000004
      py      :    -0.000002
 11 O s       :     0.010854  s :     0.010854
      pz      :     0.012398  p :     0.695738
      px      :     0.663381
      py      :     0.019959
      dz2     :     0.000038  d :     0.000038
      dxz     :     0.000011
      dyz     :     0.000004
      dx2y2   :    -0.000099
      dxy     :     0.000083
 12 H s       :    -0.723898  s :    -0.723898
      pz      :    -0.000044  p :     0.000344
      px      :     0.000305
      py      :     0.000084


                     *******************************
                     * LOEWDIN POPULATION ANALYSIS *
                     *******************************

-------------------------------------------
LOEWDIN ATOMIC CHARGES AND SPIN POPULATIONS
-------------------------------------------
   0 C :   -0.013162    0.004446
   1 C :   -0.064483    0.026473
   2 C :    0.028505    0.000266
   3 C :   -0.080447    0.007925
   4 C :   -0.015322   -0.000722
   5 C :   -0.062600   -0.006167
   6 H :    0.036832    0.001814
   7 H :    0.038214   -0.000471
   8 H :    0.026608   -0.004137
   9 H :    0.035964    0.001306
  10 H :    0.031744   -0.000170
  11 O :   -0.087219    0.662413
  12 H :    0.125366   -0.692976

----------------------------------------------------
LOEWDIN REDUCED ORBITAL CHARGES AND SPIN POPULATIONS
----------------------------------------------------
CHARGE
  0 C s       :     2.858357  s :     2.858357
      pz      :     0.949633  p :     3.062187
      px      :     1.053642
      py      :     1.058912
      dz2     :     0.005963  d :     0.092618
      dxz     :     0.007255
      dyz     :     0.013955
      dx2y2   :     0.031686
      dxy     :     0.033759
  1 C s       :     2.857295  s :     2.857295
      pz      :     1.038484  p :     3.120322
      px      :     1.029339
      py      :     1.052499
      dz2     :     0.006411  d :     0.086866
      dxz     :     0.005964
      dyz     :     0.011003
      dx2y2   :     0.027259
      dxy     :     0.036229
  2 C s       :     2.847941  s :     2.847941
      pz      :     0.941220  p :     2.952637
      px      :     1.102535
      py      :     0.908882
      dz2     :     0.011983  d :     0.170917
      dxz     :     0.015213
      dyz     :     0.037175
      dx2y2   :     0.061057
      dxy     :     0.045489
  3 C s       :     2.860929  s :     2.860929
      pz      :     1.051333  p :     3.132223
      px      :     1.017325
      py      :     1.063564
      dz2     :     0.006462  d :     0.087296
      dxz     :     0.006224
      dyz     :     0.010695
      dx2y2   :     0.028091
      dxy     :     0.035824
  4 C s       :     2.858472  s :     2.858472
      pz      :     0.950218  p :     3.064339
      px      :     1.053142
      py      :     1.060980
      dz2     :     0.006012  d :     0.092510
      dxz     :     0.006867
      dyz     :     0.014538
      dx2y2   :     0.032496
      dxy     :     0.032598
  5 C s       :     2.855448  s :     2.855448
      pz      :     1.013422  p :     3.117592
      px      :     1.063544
      py      :     1.040627
      dz2     :     0.006084  d :     0.089560
      dxz     :     0.013110
      dyz     :     0.004130
      dx2y2   :     0.035270
      dxy     :     0.030966
  6 H s       :     0.896842  s :     0.896842
      pz      :     0.013407  p :     0.066325
      px      :     0.033782
      py      :     0.019136
  7 H s       :     0.892746  s :     0.892746
      pz      :     0.015742  p :     0.069040
      px      :     0.034848
      py      :     0.018451
  8 H s       :     0.904667  s :     0.904667
      pz      :     0.016140  p :     0.068725
      px      :     0.033691
      py      :     0.018894
  9 H s       :     0.897686  s :     0.897686
      pz      :     0.013457  p :     0.066350
      px      :     0.034990
      py      :     0.017904
 10 H s       :     0.900605  s :     0.900605
      pz      :     0.015200  p :     0.067651
      px      :     0.010817
      py      :     0.041634
 11 O s       :     3.641799  s :     3.641799
      pz      :     1.831080  p :     4.425689
      px      :     1.169109
      py      :     1.425500
      dz2     :     0.002869  d :     0.019730
      dxz     :     0.000070
      dyz     :     0.003980
      dx2y2   :     0.008657
      dxy     :     0.004154
 12 H s       :     0.869154  s :     0.869154
      pz      :     0.000485  p :     0.005479
      px      :     0.004106
      py      :     0.000889

SPIN
  0 C s       :     0.000905  s :     0.000905
      pz      :     0.000720  p :     0.003373
      px      :    -0.000020
      py      :     0.002673
      dz2     :     0.000018  d :     0.000168
      dxz     :    -0.000068
      dyz     :    -0.000147
      dx2y2   :    -0.000022
      dxy     :     0.000387
  1 C s       :     0.006920  s :     0.006920
      pz      :    -0.001938  p :     0.019429
      px      :     0.010357
      py      :     0.011010
      dz2     :     0.000080  d :     0.000123
      dxz     :     0.000095
      dyz     :     0.000033
      dx2y2   :     0.000034
      dxy     :    -0.000119
  2 C s       :    -0.004274  s :    -0.004274
      pz      :    -0.000130  p :    -0.013537
      px      :     0.000530
      py      :    -0.013937
      dz2     :     0.000289  d :     0.018077
      dxz     :     0.000052
      dyz     :    -0.000536
      dx2y2   :     0.000694
      dxy     :     0.017578
  3 C s       :     0.001434  s :     0.001434
      pz      :    -0.004013  p :     0.007012
      px      :     0.010438
      py      :     0.000586
      dz2     :     0.000051  d :    -0.000520
      dxz     :     0.000093
      dyz     :     0.000026
      dx2y2   :    -0.000591
      dxy     :    -0.000099
  4 C s       :    -0.000282  s :    -0.000282
      pz      :     0.000603  p :    -0.000551
      px      :     0.000033
      py      :    -0.001187
      dz2     :    -0.000003  d :     0.000111
      dxz     :    -0.000061
      dyz     :    -0.000197
      dx2y2   :     0.000012
      dxy     :     0.000360
  5 C s       :    -0.000292  s :    -0.000292
      pz      :    -0.005734  p :    -0.005952
      px      :    -0.000037
      py      :    -0.000180
      dz2     :     0.000017  d :     0.000077
      dxz     :    -0.000010
      dyz     :     0.000016
      dx2y2   :    -0.000054
      dxy     :     0.000109
  6 H s       :     0.001738  s :     0.001738
      pz      :     0.000025  p :     0.000076
      px      :    -0.000007
      py      :     0.000058
  7 H s       :    -0.000741  s :    -0.000741
      pz      :    -0.000103  p :     0.000270
      px      :     0.000453
      py      :    -0.000080
  8 H s       :    -0.002909  s :    -0.002909
      pz      :    -0.000162  p :    -0.001228
      px      :    -0.000293
      py      :    -0.000774
  9 H s       :     0.001358  s :     0.001358
      pz      :     0.000022  p :    -0.000052
      px      :    -0.000019
      py      :    -0.000054
 10 H s       :     0.000036  s :     0.000036
      pz      :    -0.000163  p :    -0.000207
      px      :    -0.000019
      py      :    -0.000025
 11 O s       :     0.000349  s :     0.000349
      pz      :     0.011605  p :     0.662451
      px      :     0.636606
      py      :     0.014241
      dz2     :    -0.000148  d :    -0.000387
      dxz     :     0.000010
      dyz     :     0.000006
      dx2y2   :    -0.000091
      dxy     :    -0.000164
 12 H s       :    -0.695040  s :    -0.695040
      pz      :    -0.000044  p :     0.002064
      px      :     0.001636
      py      :     0.000471


                      *****************************
                      * MAYER POPULATION ANALYSIS *
                      *****************************

  NA   - Mulliken gross atomic population
  ZA   - Total nuclear charge
  QA   - Mulliken gross atomic charge
  VA   - Mayer's total valence
  BVA  - Mayer's bonded valence
  FA   - Mayer's free valence

  ATOM       NA         ZA         QA         VA         BVA        FA
  0 C      6.0084     6.0000    -0.0084     3.8796     3.8796     0.0000
  1 C      6.0678     6.0000    -0.0678     3.8910     3.8897     0.0013
  2 C      5.7822     6.0000     0.2178     3.9235     3.9219     0.0016
  3 C      6.0871     6.0000    -0.0871     3.8835     3.8825     0.0010
  4 C      6.0133     6.0000    -0.0133     3.8950     3.8950     0.0000
  5 C      6.0340     6.0000    -0.0340     3.8551     3.8551     0.0000
  6 H      0.9720     1.0000     0.0280     0.9850     0.9850     0.0000
  7 H      0.9754     1.0000     0.0246     0.9960     0.9960     0.0000
  8 H      1.0031     1.0000    -0.0031     0.9992     0.9991     0.0001
  9 H      0.9749     1.0000     0.0251     0.9846     0.9846     0.0000
 10 H      0.9791     1.0000     0.0209     0.9853     0.9853     0.0000
 11 O      8.2294     8.0000    -0.2294     2.1692     1.7036     0.4656
 12 H      0.8733     1.0000     0.1267     0.9880     0.4574     0.5305

  Mayer bond orders larger than 0.1
B(  0-C ,  1-C ) :   1.4069 B(  0-C ,  5-C ) :   1.3890 B(  0-C ,  6-H ) :   0.9859 
B(  1-C ,  2-C ) :   1.3411 B(  1-C ,  7-H ) :   0.9922 B(  2-C ,  3-C ) :   1.3320 
B(  2-C , 11-O ) :   1.1557 B(  3-C ,  4-C ) :   1.3981 B(  3-C ,  8-H ) :   0.9870 
B(  4-C ,  5-C ) :   1.4033 B(  4-C ,  9-H ) :   0.9844 B(  5-C , 10-H ) :   0.9916 
B( 11-O , 12-H ) :   0.4057 

-------
TIMINGS
-------

Total SCF time: 0 days 0 hours 3 min 30 sec 

Total time                  ....     210.304 sec
Sum of individual times     ....     210.049 sec  ( 99.9%)

Fock matrix formation       ....     159.000 sec  ( 75.6%)
  Split-RI-J                ....      12.420 sec  (  7.8% of F)
  Chain of spheres X        ....     132.487 sec  ( 83.3% of F)
  COS-X 1 center corr.      ....       0.000 sec  (  0.0% of F)
  XC integration            ....      14.022 sec  (  8.8% of F)
    Basis function eval.    ....       5.267 sec  ( 37.6% of XC)
    Density eval.           ....       2.136 sec  ( 15.2% of XC)
    XC-Functional eval.     ....       2.146 sec  ( 15.3% of XC)
    XC-Potential eval.      ....       4.307 sec  ( 30.7% of XC)
Diagonalization             ....       0.217 sec  (  0.1%)
Density matrix formation    ....       0.013 sec  (  0.0%)
Population analysis         ....       0.010 sec  (  0.0%)
Initial guess               ....       0.519 sec  (  0.2%)
Orbital Transformation      ....       0.000 sec  (  0.0%)
Orbital Orthonormalization  ....       0.000 sec  (  0.0%)
DIIS solution               ....       0.054 sec  (  0.0%)
Grid generation             ....       2.288 sec  (  1.1%)
SCF Stability Analysis      ....      47.950 sec  ( 22.8%)
------------------------------------------------------------------------------
                        ORCA TD-DFT/TDA CALCULATION
------------------------------------------------------------------------------

Input orbitals are from        ... /scratch/ch1tk/orca.15371/wB97XD3_def2-SVP_toluene_S0_TDA6S_1-90.gbw
CI-vector output               ... /scratch/ch1tk/orca.15371/wB97XD3_def2-SVP_toluene_S0_TDA6S_1-90.cis
Tamm-Dancoff approximation     ... operative
CIS-Integral strategy          ... AO-integrals
Integral handling              ... AO integral Direct
Max. core memory used          ... 512 MB
Reference state                ... UHF
Number of operators            ... 2
Orbital ranges used for CIS calculation:
 Operator 0:  Orbitals   7... 24  to  25...127
 Operator 1:  Orbitals   7... 24  to  25...127
XAS localization array:
 Operator 0:  Orbitals  -1... -1
 Operator 1:  Orbitals  -1... -1
-------------------
XC-INTEGRATION GRID
-------------------

General Integration Accuracy     IntAcc      ...  3.670
Radial Grid Type                 RadialGrid  ... Gauss-Chebyshev
Angular Grid (max. acc.)         AngularGrid ... Lebedev-50
Angular grid pruning method      GridPruning ... 3 (G Style)
Weight generation scheme         WeightScheme... Becke
Basis function cutoff            BFCut       ...    1.0000e-10
Integration weight cutoff        WCut        ...    1.0000e-14
Grids for H and He will be reduced by one unit

# of grid points (after initial pruning)     ...   7582 (   0.0 sec)
# of grid points (after weights+screening)   ...   7155 (   0.0 sec)
nearest neighbour list constructed           ...    0.0 sec
Grid point re-assignment to atoms done       ...    0.0 sec
Grid point division into batches done        ...    0.0 sec
Reduced shell lists constructed in    0.1 sec

Total number of grid points                  ...     7155
Total number of batches                      ...      117
Average number of points per batch           ...       61
Average number of grid points per atom       ...      550
Average number of shells per batch           ...    46.47 (77.46%)
Average number of basis functions per batch  ...    99.14 (77.45%)
Average number of large shells per batch     ...    37.75 (81.22%)
Average number of large basis fcns per batch ...    79.66 (80.36%)
Maximum spatial batch extension              ...  17.81, 16.68, 27.71 au
Average spatial batch extension              ...   4.45,  4.26,  7.04 au

---------------------
COSX-INTEGRATION GRID
---------------------

General Integration Accuracy     IntAcc      ...  2.670
Radial Grid Type                 RadialGrid  ... Gauss-Chebyshev
Angular Grid (max. acc.)         AngularGrid ... Lebedev-50
Angular grid pruning method      GridPruning ... 3 (G Style)
Weight generation scheme         WeightScheme... Becke
Basis function cutoff            BFCut       ...    1.0000e-10
Integration weight cutoff        WCut        ...    1.0000e-14
Grids for H and He will be reduced by one unit

# of grid points (after initial pruning)     ...   4338 (   0.0 sec)
# of grid points (after weights+screening)   ...   4112 (   0.0 sec)
nearest neighbour list constructed           ...    0.0 sec
Grid point re-assignment to atoms done       ...    0.0 sec
Grid point division into batches done        ...    0.0 sec
Reduced shell lists constructed in    0.1 sec

Total number of grid points                  ...     4112
Total number of batches                      ...       73
Average number of points per batch           ...       56
Average number of grid points per atom       ...      316
Average number of shells per batch           ...    47.11 (78.51%)
Average number of basis functions per batch  ...   101.19 (79.05%)
Average number of large shells per batch     ...    38.68 (82.10%)
Average number of large basis fcns per batch ...    82.14 (81.17%)
Maximum spatial batch extension              ...  13.79, 12.25, 24.03 au
Average spatial batch extension              ...   4.83,  4.59,  7.45 au


---------------
TD-DFT XC SETUP
---------------

DFT calculation                         ... on
Name of the grid file                   ... /scratch/ch1tk/orca.15371/wB97XD3_def2-SVP_toluene_S0_TDA6S_1-90.grid_cis.tmp
Exchange functional (SCF)               ... WB97X-D3
Exchange functional (TD-DFT)            ... WB97X-D3
Correlation functional (SCF)            ... WB97X-D3
Correlation functional (TD-DFT)         ... WB97X-D3
Hybrid DFT                              ... on
   Exchange mixing (SCF)                ...  0.196
   Exchange mixing (TD-DFT)             ...  0.196
   GGA exch. scaling(SCF)               ...  0.000
   GGA exch. scaling (TD-DFT)           ...  0.000
   GGA corr. scaling (SCF)              ...  1.000
   GGA corr. scaling (TD-DFT)           ...  1.000
Range-Separated Exchange                ... on
   Range Range separation parameter mu  .... 0.250
   Max. amount of RS exchange (SCF)     ...  0.804
   Max. amount of RS exchange (TD-DFT)  ...  0.804

Building densities             ... done
Calculating rho(r) on the grid ... done
Building xc-kernel on the grid ... done
                    *** TD-DFT CALCULATION INITIALIZED ***


------------------------
DAVIDSON-DIAGONALIZATION
------------------------

Dimension of the eigenvalue problem            ...   3708
Number of roots to be determined               ...      6
Maximum size of the expansion space            ...     60
Convergence tolerance for the residual         ...    1.000e-06
Convergence tolerance for the energies         ...    1.000e-06
Orthogonality tolerance                        ...    1.000e-14
Level Shift                                    ...    0.000e+00
Constructing the preconditioner                ... o.k.
Building the initial guess                     ... o.k.
Number of trial vectors determined             ...     60


                       ****Iteration    0****

   Memory handling for direct AO based CIS:
   Memory per vector needed      ...     1 MB
   Memory needed                 ...    23 MB
   Memory available              ...   512 MB
   Number of vectors per batch   ...   391
   Number of batches             ...     1
   Time for densities:     0.022
   Time for RI-J (Direct):     4.746
   Time for K (COSX):     3.848
   Time for XC-Integration:     2.427
   Time for Sigma-Completion:     0.092
   Size of expansion space: 18
   Lowest Energy          :     0.019333232153
   Maximum Energy change  :     0.169029594942 (vector 5)
   Maximum residual norm  :     0.014994240070

                       ****Iteration    1****
   Time for densities:     0.007
   Time for RI-J (Direct):     1.619
   Time for K (COSX):     3.162
   Time for XC-Integration:     0.858
   Time for Sigma-Completion:     0.031
   Size of expansion space: 24
   Lowest Energy          :     0.011463043036
   Maximum Energy change  :     0.023185937572 (vector 3)
   Maximum residual norm  :     0.003858517556

                       ****Iteration    2****
   Time for densities:     0.007
   Time for RI-J (Direct):     1.632
   Time for K (COSX):     3.176
   Time for XC-Integration:     0.870
   Time for Sigma-Completion:     0.031
   Size of expansion space: 30
   Lowest Energy          :     0.010804640619
   Maximum Energy change  :     0.006047888559 (vector 3)
   Maximum residual norm  :     0.003569352451

                       ****Iteration    3****
   Time for densities:     0.007
   Time for RI-J (Direct):     1.637
   Time for K (COSX):     3.176
   Time for XC-Integration:     0.872
   Time for Sigma-Completion:     0.031
   Size of expansion space: 36
   Lowest Energy          :     0.010789416682
   Maximum Energy change  :     0.002885996036 (vector 4)
   Maximum residual norm  :     0.000087545197

                       ****Iteration    4****
   Time for densities:     0.007
   Time for RI-J (Direct):     1.646
   Time for K (COSX):     3.053
   Time for XC-Integration:     0.853
   Time for Sigma-Completion:     0.029
   Size of expansion space: 42
   Lowest Energy          :     0.010789215317
   Maximum Energy change  :     0.000171429452 (vector 3)
   Maximum residual norm  :     0.000029491665

                       ****Iteration    5****
   Time for densities:     0.007
   Time for RI-J (Direct):     1.598
   Time for K (COSX):     3.096
   Time for XC-Integration:     0.806
   Time for Sigma-Completion:     0.029
   Size of expansion space: 48
   Lowest Energy          :     0.010789211486
   Maximum Energy change  :     0.000061227607 (vector 3)
   Maximum residual norm  :     0.000008346904

                       ****Iteration    6****
   Time for densities:     0.007
   Time for RI-J (Direct):     1.557
   Time for K (COSX):     2.953
   Time for XC-Integration:     0.829
   Time for Sigma-Completion:     0.029
   Size of expansion space: 54
   Lowest Energy          :     0.010789211426
   Maximum Energy change  :     0.000010005801 (vector 3)
   Maximum residual norm  :     0.000000993501

      *** CONVERGENCE OF RESIDUAL NORM REACHED ***

Storing the converged CI vectors               ... /scratch/ch1tk/orca.15371/wB97XD3_def2-SVP_toluene_S0_TDA6S_1-90.cis1

                 *** DAVIDSON DONE ***

Total time for solving the CIS problem:    44.910sec

-------------------------
TD-DFT/TDA EXCITED STATES
-------------------------

the weight of the individual excitations are printed if larger than 0.01

STATE  1:  E=   0.010789 au      0.294 eV     2368.0 cm**-1
    18b ->  25b  :     0.030250 (c= -0.17392384)
    21b ->  25b  :     0.148817 (c=  0.38576868)
    24b ->  25b  :     0.814403 (c= -0.90244283)

STATE  2:  E=   0.112910 au      3.072 eV    24780.9 cm**-1
    21a ->  25a  :     0.064907 (c=  0.25476895)
    23a ->  25a  :     0.013578 (c= -0.11652474)
    24a ->  25a  :     0.903772 (c= -0.95066909)

STATE  3:  E=   0.117574 au      3.199 eV    25804.5 cm**-1
    23b ->  25b  :     0.995735 (c= -0.99786537)

STATE  4:  E=   0.132244 au      3.599 eV    29024.3 cm**-1
    19a ->  25a  :     0.059494 (c= -0.24391419)
    22a ->  25a  :     0.075096 (c= -0.27403619)
    15b ->  25b  :     0.023606 (c=  0.15364244)
    16b ->  25b  :     0.030334 (c= -0.17416733)
    20b ->  25b  :     0.031843 (c= -0.17844688)
    22b ->  25b  :     0.737971 (c=  0.85905223)

STATE  5:  E=   0.151946 au      4.135 eV    33348.3 cm**-1
    18b ->  25b  :     0.329604 (c= -0.57411145)
    21b ->  25b  :     0.490501 (c=  0.70035791)
    24b ->  25b  :     0.168369 (c=  0.41032770)

STATE  6:  E=   0.154866 au      4.214 eV    33989.1 cm**-1
    23a ->  26a  :     0.147911 (c= -0.38459262)
    24a ->  27a  :     0.312994 (c= -0.55945834)
    23b ->  26b  :     0.149060 (c=  0.38608264)
    24b ->  27b  :     0.333559 (c=  0.57754558)


-----------------------------
TD-DFT/TDA-EXCITATION SPECTRA
-----------------------------

Center of mass = (  0.0006,  0.0476,  0.0000)
Calculating the Dipole integrals                  ... done
Transforming integrals                            ... done
Calculating the Linear Momentum integrals         ... done
Transforming integrals                            ... done
Calculating angular momentum integrals            ... done
Transforming integrals                            ... done

-----------------------------------------------------------------------------
         ABSORPTION SPECTRUM VIA TRANSITION ELECTRIC DIPOLE MOMENTS
-----------------------------------------------------------------------------
State   Energy  Wavelength   fosc         T2         TX        TY        TZ  
        (cm-1)    (nm)                  (au**2)     (au)      (au)      (au) 
-----------------------------------------------------------------------------
   1    2368.0   4223.0   0.000000000   0.00000   0.00000   0.00001  -0.00020
   2   24780.9    403.5   0.000000946   0.00001   0.00000   0.00000   0.00355
   3   25804.5    387.5   0.000049904   0.00064   0.00001   0.00001  -0.02523
   4   29024.3    344.5   0.069672642   0.79027   0.64662   0.61005  -0.00000
   5   33348.3    299.9   0.000007680   0.00008   0.00002   0.00002  -0.00871
   6   33989.1    294.2   0.000223774   0.00217   0.01169   0.04506  -0.00000

-----------------------------------------------------------------------------
         ABSORPTION SPECTRUM VIA TRANSITION VELOCITY DIPOLE MOMENTS
-----------------------------------------------------------------------------
State   Energy  Wavelength   fosc         P2         PX        PY        PZ  
        (cm-1)    (nm)                  (au**2)     (au)      (au)      (au) 
-----------------------------------------------------------------------------
   1    2368.0   4223.0   0.008041697   0.00013   0.00000   0.00000   0.01141
   2   24780.9    403.5   0.001884244   0.00032   0.00000   0.00000   0.01786
   3   25804.5    387.5   0.000440779   0.00008   0.00000  -0.00000  -0.00882
   4   29024.3    344.5   0.035262395   0.00699  -0.00977  -0.08306   0.00000
   5   33348.3    299.9   0.000509115   0.00012  -0.00000  -0.00000   0.01077
   6   33989.1    294.2   0.000003828   0.00000  -0.00093  -0.00015   0.00000

-------------------------------------------------------------------
                             CD SPECTRUM
-------------------------------------------------------------------
State   Energy Wavelength       R         MX        MY        MZ   
        (cm-1)   (nm)       (1e40*cgs)   (au)      (au)      (au)  
-------------------------------------------------------------------
   1    2368.0   4223.0      0.00072  -0.07959   0.31012  -0.00000
   2   24780.9    403.5     -0.00011  -0.09417   0.02084  -0.00000
   3   25804.5    387.5      0.00023   0.01172   0.01674  -0.00000
   4   29024.3    344.5     -0.00114   0.00000  -0.00001  -0.32963
   5   33348.3    299.9      0.00124  -0.04368   0.19376  -0.00000
   6   33989.1    294.2      0.00013  -0.00000   0.00001  -0.00644

Total run time:       45.542 sec

           *** ORCA-CIS/TD-DFT FINISHED WITHOUT ERROR ***

-----------------------
CIS/TD-DFT TOTAL ENERGY
-----------------------

    E(SCF)  =   -306.993851117 Eh
    DE(CIS) =      0.010789211 Eh (Root  1)
    ----------------------------- ---------
    E(tot)  =   -306.983061906 Eh



-------------------------------------------------------------------------------
                          DFT DISPERSION CORRECTION                            
                                                                               
                              DFTD3 V3.1  Rev 1                                
                              USING zero damping                               
-------------------------------------------------------------------------------
The omegaB97X-D3 functional is recognized. Fit by Chai et al.
Active option DFTDOPT                   ...         3   

molecular C6(AA) [au] = 2037.857840 


            DFT-D V3
 parameters
 s6 scaling factor         :     1.0000 
 rs6 scaling factor        :     1.2810 
 s8 scaling factor         :     1.0000 
 rs8 scaling factor        :     1.0940 
 Damping factor alpha6     :    14.0000 
 Damping factor alpha8     :    16.0000 
 ad hoc parameters k1-k3   :    16.0000     1.3333    -4.0000 

 Edisp/kcal,au: -1.901173005568  -0.003029711712 
 E6   /kcal   :  -0.800718771 
 E8   /kcal   :  -1.100454234 
 % E8         :  57.882908653 

-------------------------   ----------------
Dispersion correction           -0.003029712
-------------------------   ----------------


-------------------------   --------------------
FINAL SINGLE POINT ENERGY      -306.996880828945
-------------------------   --------------------


                            ***************************************
                            *     ORCA property calculations      *
                            ***************************************

                                    ---------------------
                                    Active property flags
                                    ---------------------
   (+) Dipole Moment


------------------------------------------------------------------------------
                       ORCA ELECTRIC PROPERTIES CALCULATION
------------------------------------------------------------------------------

Dipole Moment Calculation                       ... on
Quadrupole Moment Calculation                   ... off
Polarizability Calculation                      ... off
GBWName                                         ... /scratch/ch1tk/orca.15371/wB97XD3_def2-SVP_toluene_S0_TDA6S_1-90.gbw
Electron density file                           ... /scratch/ch1tk/orca.15371/wB97XD3_def2-SVP_toluene_S0_TDA6S_1-90.scfp.tmp
The origin for moment calculation is the CENTER OF MASS  = ( 0.000560,  0.047626  0.000000)

-------------
DIPOLE MOMENT
-------------
                                X             Y             Z
Electronic contribution:     -1.21108       1.50242      -0.00000
Nuclear contribution   :      1.60669      -1.69421       0.00000
                        -----------------------------------------
Total Dipole Moment    :      0.39560      -0.19180      -0.00000
                        -----------------------------------------
Magnitude (a.u.)       :      0.43965
Magnitude (Debye)      :      1.11749


Timings for individual modules:

Sum of individual times         ...      256.178 sec (=   4.270 min)
GTO integral calculation        ...        0.262 sec (=   0.004 min)   0.1 %
SCF iterations                  ...      210.338 sec (=   3.506 min)  82.1 %
CIS module                      ...       45.578 sec (=   0.760 min)  17.8 %
                             ****ORCA TERMINATED NORMALLY****
TOTAL RUN TIME: 0 days 0 hours 4 minutes 16 seconds 434 msec
