
                                 *****************
                                 * O   R   C   A *
                                 *****************

           --- An Ab Initio, DFT and Semiempirical electronic structure package ---

                  #######################################################
                  #                        -***-                        #
                  #  Department of molecular theory and spectroscopy    #
                  #              Directorship: Frank Neese              #
                  # Max Planck Institute for Chemical Energy Conversion #
                  #                  D-45470 Muelheim/Ruhr              #
                  #                       Germany                       #
                  #                                                     #
                  #                  All rights reserved                #
                  #                        -***-                        #
                  #######################################################


                         Program Version 4.0.1.2 - RELEASE -


 With contributions from (in alphabetic order):
   Daniel Aravena         : Magnetic Properties
   Michael Atanasov       : Ab Initio Ligand Field Theory
   Ute Becker             : Parallelization
   Martin Brehm           : Molecular dynamics
   Dmytro Bykov           : SCF Hessian
   Vijay G. Chilkuri      : MRCI spin determinant printing
   Dipayan Datta          : RHF DLPNO-CCSD density
   Achintya Kumar Dutta   : EOM-CC, STEOM-CC
   Dmitry Ganyushin       : Spin-Orbit,Spin-Spin,Magnetic field MRCI
   Yang Guo               : DLPNO-NEVPT2, CIM, IAO-localization
   Andreas Hansen         : Spin unrestricted coupled pair/coupled cluster methods
   Lee Huntington         : MR-EOM, pCC
   Robert Izsak           : Overlap fitted RIJCOSX, COSX-SCS-MP3, EOM
   Christian Kollmar      : KDIIS, OOCD, Brueckner-CCSD(T), CCSD density
   Simone Kossmann        : Meta GGA functionals, TD-DFT gradient, OOMP2, MP2 Hessian
   Martin Krupicka        : AUTO-CI
   Dagmar Lenk            : GEPOL surface
   Dimitrios Liakos       : Extrapolation schemes; parallel MDCI
   Dimitrios Manganas     : ROCIS; embedding schemes
   Dimitrios Pantazis     : SARC Basis sets
   Taras Petrenko         : DFT Hessian,TD-DFT gradient, ASA, ECA, R-Raman, ABS, FL, XAS/XES, NRVS
   Peter Pinski           : DLPNO-MP2
   Christoph Reimann      : Effective Core Potentials
   Marius Retegan         : Local ZFS, SOC
   Christoph Riplinger    : Optimizer, TS searches, QM/MM, DLPNO-CCSD(T), (RO)-DLPNO pert. Triples
   Tobias Risthaus        : Range-separated hybrids, TD-DFT gradient, RPA, STAB
   Michael Roemelt        : Restricted open shell CIS
   Masaaki Saitow         : Open-shell DLPNO
   Barbara Sandhoefer     : DKH picture change effects
   Kantharuban Sivalingam : CASSCF convergence, NEVPT2, FIC-MRCI
   Georgi Stoychev        : AutoAux
   Boris Wezisla          : Elementary symmetry handling
   Frank Wennmohs         : Technical directorship


 We gratefully acknowledge several colleagues who have allowed us to
 interface, adapt or use parts of their codes:
   Stefan Grimme, W. Hujo, H. Kruse,             : VdW corrections, initial TS optimization,
                  C. Bannwarth                     DFT functionals, gCP, sTDA/sTD-DF
   Ed Valeev                                     : LibInt (2-el integral package), F12 methods
   Garnet Chan, S. Sharma, J. Yang, R. Olivares  : DMRG
   Ulf Ekstrom                                   : XCFun DFT Library
   Mihaly Kallay                                 : mrcc  (arbitrary order and MRCC methods)
   Andreas Klamt, Michael Diedenhofen            : otool_cosmo (COSMO solvation model)
   Jiri Pittner, Ondrej Demel                    : Mk-CCSD
   Frank Weinhold                                : gennbo (NPA and NBO analysis)
   Christopher J. Cramer and Donald G. Truhlar   : smd solvation model


 Your calculation uses the libint2 library for the computation of 2-el integrals
 For citations please refer to: http://libint.valeyev.net

 This ORCA versions uses:
   CBLAS   interface :  Fast vector & matrix operations
   LAPACKE interface :  Fast linear algebra routines
   SCALAPACK package :  Parallel linear algebra routines


Your calculation utilizes the atom-pairwise dispersion correction
with the zero-damping scheme (D30)
Cite in your paper:
S.Grimme, J.Antony, S.Ehrlich and H.Krieg, J.Chem.Phys., 132, (2010), 154104 
   

XCFun DFT library Copyright 2009-2010 Ulf Ekstrom and contributors.
See http://admol.org/xcfun for more information. This is free soft-
ware; see the source code for copying conditions. There is ABSOLUTELY
NO WARRANTY; not even for MERCHANTABILITY or FITNESS FOR A PARTICULAR
PURPOSE. For details see the documentation. Scientific users of this 
library should cite U. Ekstrom, L. Visscher, R. Bast, A. J. Thorvald-
sen and K. Ruud; J.Chem.Theor.Comp. 2010, DOI: 10.1021/ct100117s
XCFun Version 0.99 
Your calculation utilizes the basis: def2-SVP
   F. Weigend and R. Ahlrichs, Phys. Chem. Chem. Phys. 7, 3297 (2005).

Your calculation utilizes the auxiliary basis: def2/JK
   H-Ba, Hf-Rn: F. Weigend, J. Comput. Chem. 29, 167 (2008).

WARNING: Overwriting auxiliary coulomb basis with /JK basis!
================================================================================
                                        WARNINGS
                       Please study these warnings very carefully!
================================================================================

Warning: TCutStore was < 0. Adjusted to Thresh (uncritical)
INFO   : Checking CIS options ...

WARNING: CIS/ROCIS methods need fully converged wavefunctions
  ===> : Setting SCFConvForced true
         You can overwrite this default with %scf ConvForced false 


INFO   : the flag for use of LIBINT has been found!

================================================================================
                                       INPUT FILE
================================================================================
NAME = /scratch/ch1tk/orca.15125/wB97XD3_def2-SVP_toluene_S0_TDA6S_0-80.inp
|  1> ! UKS wB97X-D3 def2-SVP RIJCOSX def2/JK SlowConv
|  2>  
|  3> 
|  4> %scf
|  5> 	MaxIter		500
|  6> 	STABPerform	True
|  7> end
|  8> 
|  9> %tddft
| 10> 	NRoots 6
| 11> end
| 12> 
| 13> * xyz 0 1
| 14>  C                 -1.18578599   -1.17301779    0.00000000
| 15>  C                 -1.22528521    0.21672485    0.00000000
| 16>  C                 -0.03021307    0.94488843    0.00000000
| 17>  C                  1.19387265    0.26897053    0.00000000
| 18>  C                  1.21998389   -1.12396818    0.00000000
| 19>  C                  0.03366349   -1.85245673    0.00000000
| 20>  H                 -2.12142076   -1.73821028    0.00000000
| 21>  H                 -2.17044776    0.76362561    0.00000000
| 22>  H                  2.12866956    0.83920121    0.00000000
| 23>  H                  2.18175171   -1.64285600    0.00000000
| 24>  H                  0.05704252   -2.94432740    0.00000000
| 25>  O                 -0.11105943    2.29589847    0.00000000
| 26>  H                  0.62643908    2.60589192    0.00000000
| 27> end
| 28> 
| 29>                          ****END OF INPUT****
================================================================================

                       ****************************
                       * Single Point Calculation *
                       ****************************

---------------------------------
CARTESIAN COORDINATES (ANGSTROEM)
---------------------------------
  C     -1.185786   -1.173018    0.000000
  C     -1.225285    0.216725    0.000000
  C     -0.030213    0.944888    0.000000
  C      1.193873    0.268971    0.000000
  C      1.219984   -1.123968    0.000000
  C      0.033663   -1.852457    0.000000
  H     -2.121421   -1.738210    0.000000
  H     -2.170448    0.763626    0.000000
  H      2.128670    0.839201    0.000000
  H      2.181752   -1.642856    0.000000
  H      0.057043   -2.944327    0.000000
  O     -0.111059    2.295898    0.000000
  H      0.626439    2.605892    0.000000

----------------------------
CARTESIAN COORDINATES (A.U.)
----------------------------
  NO LB      ZA    FRAG     MASS         X           Y           Z
   0 C     6.0000    0    12.011   -2.240811   -2.216682    0.000000
   1 C     6.0000    0    12.011   -2.315453    0.409551    0.000000
   2 C     6.0000    0    12.011   -0.057094    1.785580    0.000000
   3 C     6.0000    0    12.011    2.256092    0.508281    0.000000
   4 C     6.0000    0    12.011    2.305435   -2.123992    0.000000
   5 C     6.0000    0    12.011    0.063615   -3.500636    0.000000
   6 H     1.0000    0     1.008   -4.008904   -3.284741    0.000000
   7 H     1.0000    0     1.008   -4.101552    1.443043    0.000000
   8 H     1.0000    0     1.008    4.022602    1.585860    0.000000
   9 H     1.0000    0     1.008    4.122913   -3.104548    0.000000
  10 H     1.0000    0     1.008    0.107795   -5.563972    0.000000
  11 O     8.0000    0    15.999   -0.209872    4.338619    0.000000
  12 H     1.0000    0     1.008    1.183798    4.924422    0.000000

--------------------------------
INTERNAL COORDINATES (ANGSTROEM)
--------------------------------
 C      0   0   0     0.000000000000     0.00000000     0.00000000
 C      1   0   0     1.390303849457     0.00000000     0.00000000
 C      2   1   0     1.399435464408   119.72614521     0.00000000
 C      3   2   1     1.398302848974   119.73915203     0.00000000
 C      4   3   2     1.393183421761   119.98059071     0.00000000
 C      5   4   3     1.392139238344   120.47909682     0.00000000
 H      1   2   3     1.093094219903   119.50705551   180.00000085
 H      2   1   3     1.091985662548   121.68304388   180.00000000
 H      4   3   2     1.094992370457   119.70992277   180.00000000
 H      5   4   3     1.092813757843   119.42141969   180.00000000
 H      6   5   4     1.092120936092   120.32638097   180.00000085
 O      3   2   1     1.353426858794   117.92958877   180.00000000
 H     12   3   2     0.799999994559   109.37394563   180.00000085

---------------------------
INTERNAL COORDINATES (A.U.)
---------------------------
 C      0   0   0     0.000000000000     0.00000000     0.00000000
 C      1   0   0     2.627293518410     0.00000000     0.00000000
 C      2   1   0     2.644549769828   119.72614521     0.00000000
 C      3   2   1     2.642409436842   119.73915203     0.00000000
 C      4   3   2     2.632735121448   119.98059071     0.00000000
 C      5   4   3     2.630761900756   120.47909682     0.00000000
 H      1   2   3     2.065648714189   119.50705551   180.00000085
 H      2   1   3     2.063553844385   121.68304388   180.00000000
 H      4   3   2     2.069235698897   119.70992277   180.00000000
 H      5   4   3     2.065118717705   119.42141969   180.00000000
 H      6   5   4     2.063809474335   120.32638097   180.00000085
 O      3   2   1     2.557606105415   117.92958877   180.00000000
 H     12   3   2     1.511780896856   109.37394563   180.00000085

---------------------
BASIS SET INFORMATION
---------------------
There are 3 groups of distinct atoms

 Group   1 Type C   : 7s4p1d contracted to 3s2p1d pattern {511/31/1}
 Group   2 Type H   : 4s1p contracted to 2s1p pattern {31/1}
 Group   3 Type O   : 7s4p1d contracted to 3s2p1d pattern {511/31/1}

Atom   0C    basis set group =>   1
Atom   1C    basis set group =>   1
Atom   2C    basis set group =>   1
Atom   3C    basis set group =>   1
Atom   4C    basis set group =>   1
Atom   5C    basis set group =>   1
Atom   6H    basis set group =>   2
Atom   7H    basis set group =>   2
Atom   8H    basis set group =>   2
Atom   9H    basis set group =>   2
Atom  10H    basis set group =>   2
Atom  11O    basis set group =>   3
Atom  12H    basis set group =>   2
-------------------------------
AUXILIARY BASIS SET INFORMATION
-------------------------------
There are 3 groups of distinct atoms

 Group   1 Type C   : 14s10p6d2f1g contracted to 10s8p5d1f1g pattern {5111111111/31111111/21111/2/1}
 Group   2 Type H   : 4s2p2d contracted to 2s2p2d pattern {31/11/11}
 Group   3 Type O   : 14s10p6d2f1g contracted to 10s8p4d2f1g pattern {5111111111/31111111/3111/11/1}

Atom   0C    basis set group =>   1
Atom   1C    basis set group =>   1
Atom   2C    basis set group =>   1
Atom   3C    basis set group =>   1
Atom   4C    basis set group =>   1
Atom   5C    basis set group =>   1
Atom   6H    basis set group =>   2
Atom   7H    basis set group =>   2
Atom   8H    basis set group =>   2
Atom   9H    basis set group =>   2
Atom  10H    basis set group =>   2
Atom  11O    basis set group =>   3
Atom  12H    basis set group =>   2
------------------------------------------------------------------------------
                           ORCA GTO INTEGRAL CALCULATION
                           -- RI-GTO INTEGRALS CHOSEN --
------------------------------------------------------------------------------

                         BASIS SET STATISTICS AND STARTUP INFO

Gaussian basis set:
 # of primitive gaussian shells          ...  114
 # of primitive gaussian functions       ...  210
 # of contracted shells                  ...   60
 # of contracted basis functions         ...  128
 Highest angular momentum                ...    2
 Maximum contraction depth               ...    5
Auxiliary gaussian basis set:
 # of primitive gaussian shells          ...  279
 # of primitive gaussian functions       ...  799
 # of contracted shells                  ...  211
 # of contracted aux-basis functions     ...  635
 Highest angular momentum                ...    4
 Maximum contraction depth               ...    5
Ratio of auxiliary to basis functions    ...  4.96
Integral package used                  ... LIBINT
 One Electron integrals                  ... done
 Ordering auxiliary basis shells         ... done
 Integral threshhold             Thresh  ...  1.000e-10
 Primitive cut-off               TCut    ...  1.000e-11
 Pre-screening matrix                    ... done
 Shell pair data                         ... 
 Ordering of the shell pairs             ... done (   0.000 sec) 1771 of 1830 pairs
 Determination of significant pairs      ... done (   0.000 sec)
 Creation of shell pair data             ... done (   0.001 sec)
 Storage of shell pair data              ... done (   0.001 sec)
 Shell pair data done in (   0.002 sec)
 Computing two index integrals           ... done
 Cholesky decomposition of the V-matrix  ... done


Timings:
 Total evaluation time                   ...   0.271 sec (  0.005 min)
 One electron matrix time                ...   0.013 sec (  0.000 min) =  4.9%
 Schwartz matrix evaluation time         ...   0.132 sec (  0.002 min) = 48.8%
 Two index repulsion integral time       ...   0.080 sec (  0.001 min) = 29.4%
 Cholesky decomposition of V             ...   0.019 sec (  0.000 min) =  7.1%
 Three index repulsion integral time     ...   0.000 sec (  0.000 min) =  0.0%

-------------------------------------------------------------------------------
                                 ORCA SCF
-------------------------------------------------------------------------------

------------
SCF SETTINGS
------------
Hamiltonian:
 Density Functional     Method          .... DFT(GTOs)
 Exchange Functional    Exchange        .... WB97X-D3
 Correlation Functional Correlation     .... WB97X-D3
 Gradients option       PostSCFGGA      .... off
 Hybrid DFT is turned on
   Fraction HF Exchange ScalHFX         ....  0.195728
   Scaling of DF-GGA-X  ScalDFX         ....  0.000000
   Scaling of DF-GGA-C  ScalDFC         ....  1.000000
   Scaling of DF-LDA-C  ScalLDAC        ....  1.000000
   Perturbative correction              ....  0.000000
 Long-range corrected/Screened/Range-Separated Hybrid DFT is turned on
   Amount of maximum screened exact exchange              ....  0.804272
   Range separation parameter mu (erf(mu*r12)/r12)        ....  0.250000
 RI-approximation to the Coulomb term is turned on
   Number of auxiliary basis functions  .... 635
   RIJ-COSX (HFX calculated with COS-X)).... on


General Settings:
 Integral files         IntName         .... /scratch/ch1tk/orca.15125/wB97XD3_def2-SVP_toluene_S0_TDA6S_0-80
 Hartree-Fock type      HFTyp           .... UHF
 Total Charge           Charge          ....    0
 Multiplicity           Mult            ....    1
 Number of Electrons    NEL             ....   50
 Basis Dimension        Dim             ....  128
 Nuclear Repulsion      ENuc            ....    272.3996516478 Eh

Convergence Acceleration:
 DIIS                   CNVDIIS         .... on
   Start iteration      DIISMaxIt       ....     0
   Startup error        DIISStart       ....  0.200000
   # of expansion vecs  DIISMaxEq       ....     5
   Bias factor          DIISBfac        ....   1.050
   Max. coefficient     DIISMaxC        ....  10.000
 Newton-Raphson         CNVNR           .... off
 SOSCF                  CNVSOSCF        .... off
 Level Shifting         CNVShift        .... on
   Level shift para.    LevelShift      ....    0.2500
   Turn off err/grad.   ShiftErr        ....    0.0000
 Zerner damping         CNVZerner       .... off
 Static damping         CNVDamp         .... on
   Fraction old density DampFac         ....    0.8500
   Max. Damping (<1)    DampMax         ....    0.9800
   Min. Damping (>=0)   DampMin         ....    0.0000
   Turn off err/grad.   DampErr         ....    0.0300
 Fernandez-Rico         CNVRico         .... off

SCF Procedure:
 Maximum # iterations   MaxIter         ....   500
 SCF integral mode      SCFMode         .... Direct
   Integral package                     .... LIBINT
 Reset frequeny         DirectResetFreq ....    20
 Integral Threshold     Thresh          ....  1.000e-10 Eh
 Primitive CutOff       TCut            ....  1.000e-11 Eh

Convergence Tolerance:
 Convergence Check Mode ConvCheckMode   .... Total+1el-Energy
 Convergence forced     ConvForced      .... 1
 Energy Change          TolE            ....  1.000e-06 Eh
 1-El. energy change                    ....  1.000e-03 Eh
 DIIS Error             TolErr          ....  1.000e-06


Diagonalization of the overlap matrix:
Smallest eigenvalue                        ... 2.783e-04
Time for diagonalization                   ...    0.005 sec
Threshold for overlap eigenvalues          ... 1.000e-08
Number of eigenvalues below threshold      ... 0
Time for construction of square roots      ...    0.003 sec
Total time needed                          ...    0.008 sec

-------------------
DFT GRID GENERATION
-------------------

General Integration Accuracy     IntAcc      ...  4.340
Radial Grid Type                 RadialGrid  ... Gauss-Chebyshev
Angular Grid (max. acc.)         AngularGrid ... Lebedev-110
Angular grid pruning method      GridPruning ... 3 (G Style)
Weight generation scheme         WeightScheme... Becke
Basis function cutoff            BFCut       ...    1.0000e-10
Integration weight cutoff        WCut        ...    1.0000e-14
Grids for H and He will be reduced by one unit

# of grid points (after initial pruning)     ...  16416 (   0.0 sec)
# of grid points (after weights+screening)   ...  15321 (   0.0 sec)
nearest neighbour list constructed           ...    0.0 sec
Grid point re-assignment to atoms done       ...    0.0 sec
Grid point division into batches done        ...    0.0 sec
Reduced shell lists constructed in    0.2 sec

Total number of grid points                  ...    15321
Total number of batches                      ...      244
Average number of points per batch           ...       62
Average number of grid points per atom       ...     1179
Average number of shells per batch           ...    44.58 (74.31%)
Average number of basis functions per batch  ...    94.71 (74.00%)
Average number of large shells per batch     ...    35.98 (80.71%)
Average number of large basis fcns per batch ...    75.58 (79.79%)
Maximum spatial batch extension              ...  20.10, 16.74, 25.60 au
Average spatial batch extension              ...   3.75,  3.57,  5.50 au

Time for grid setup =    0.205 sec

------------------------------
INITIAL GUESS: MODEL POTENTIAL
------------------------------
Loading Hartree-Fock densities                     ... done
Calculating cut-offs                               ... done
Setting up the integral package                    ... done
Initializing the effective Hamiltonian             ... done
Starting the Coulomb interaction                   ... done (   0.1 sec)
Reading the grid                                   ... done
Mapping shells                                     ... done
Starting the XC term evaluation                    ... done (   0.2 sec)
  promolecular density results
     # of electrons  =     50.000664295
     EX              =    -40.644036011
     EC              =     -1.655402693
     EX+EC           =    -42.299438704
Transforming the Hamiltonian                       ... done (   0.0 sec)
Diagonalizing the Hamiltonian                      ... done (   0.0 sec)
Back transforming the eigenvectors                 ... done (   0.0 sec)
Now organizing SCF variables                       ... done
                      ------------------
                      INITIAL GUESS DONE (   0.6 sec)
                      ------------------
--------------------
COSX GRID GENERATION
--------------------

General Integration Accuracy     IntAcc      ...  3.340
Radial Grid Type                 RadialGrid  ... Gauss-Chebyshev
Angular Grid (max. acc.)         AngularGrid ... Lebedev-50
Angular grid pruning method      GridPruning ... 3 (G Style)
Weight generation scheme         WeightScheme... Becke
Basis function cutoff            BFCut       ...    1.0000e-10
Integration weight cutoff        WCut        ...    1.0000e-14
Grids for H and He will be reduced by one unit

# of grid points (after initial pruning)     ...   5980 (   0.0 sec)
# of grid points (after weights+screening)   ...   5653 (   0.0 sec)
nearest neighbour list constructed           ...    0.0 sec
Grid point re-assignment to atoms done       ...    0.0 sec
Grid point division into batches done        ...    0.0 sec
Reduced shell lists constructed in    0.1 sec

Total number of grid points                  ...     5653
Total number of batches                      ...       95
Average number of points per batch           ...       59
Average number of grid points per atom       ...      435
Average number of shells per batch           ...    47.64 (79.39%)
Average number of basis functions per batch  ...   101.99 (79.68%)
Average number of large shells per batch     ...    39.38 (82.66%)
Average number of large basis fcns per batch ...    83.71 (82.08%)
Maximum spatial batch extension              ...  16.61, 14.62, 25.32 au
Average spatial batch extension              ...   4.65,  4.73,  7.31 au

Overlap Fitting                  UseSFitting ... on
Constructing numerical overlap ... done (      0.0 sec)
Inverting numerical overlap    ... done (      0.0 sec)
Obtaining analytic overlap     ... done (      0.0 sec)
Final contraction and storage  ... done (      0.0 sec)


General Integration Accuracy     IntAcc      ...  3.670
Radial Grid Type                 RadialGrid  ... Gauss-Chebyshev
Angular Grid (max. acc.)         AngularGrid ... Lebedev-50
Angular grid pruning method      GridPruning ... 3 (G Style)
Weight generation scheme         WeightScheme... Becke
Basis function cutoff            BFCut       ...    1.0000e-10
Integration weight cutoff        WCut        ...    1.0000e-14
Grids for H and He will be reduced by one unit

# of grid points (after initial pruning)     ...   7582 (   0.0 sec)
# of grid points (after weights+screening)   ...   7143 (   0.0 sec)
nearest neighbour list constructed           ...    0.0 sec
Grid point re-assignment to atoms done       ...    0.0 sec
Grid point division into batches done        ...    0.0 sec
Reduced shell lists constructed in    0.1 sec

Total number of grid points                  ...     7143
Total number of batches                      ...      117
Average number of points per batch           ...       61
Average number of grid points per atom       ...      549
Average number of shells per batch           ...    47.07 (78.45%)
Average number of basis functions per batch  ...   100.49 (78.51%)
Average number of large shells per batch     ...    38.38 (81.54%)
Average number of large basis fcns per batch ...    80.87 (80.48%)
Maximum spatial batch extension              ...  17.81, 15.26, 27.71 au
Average spatial batch extension              ...   4.34,  4.49,  6.93 au

Overlap Fitting                  UseSFitting ... on
Constructing numerical overlap ... done (      0.1 sec)
Inverting numerical overlap    ... done (      0.0 sec)
Obtaining analytic overlap     ... done (      0.0 sec)
Final contraction and storage  ... done (      0.0 sec)


General Integration Accuracy     IntAcc      ...  4.010
Radial Grid Type                 RadialGrid  ... Gauss-Chebyshev
Angular Grid (max. acc.)         AngularGrid ... Lebedev-110
Angular grid pruning method      GridPruning ... 3 (G Style)
Weight generation scheme         WeightScheme... Becke
Basis function cutoff            BFCut       ...    1.0000e-10
Integration weight cutoff        WCut        ...    1.0000e-14
Grids for H and He will be reduced by one unit

# of grid points (after initial pruning)     ...  14238 (   0.0 sec)
# of grid points (after weights+screening)   ...  13310 (   0.0 sec)
nearest neighbour list constructed           ...    0.0 sec
Grid point re-assignment to atoms done       ...    0.0 sec
Grid point division into batches done        ...    0.0 sec
Reduced shell lists constructed in    0.1 sec

Total number of grid points                  ...    13310
Total number of batches                      ...      213
Average number of points per batch           ...       62
Average number of grid points per atom       ...     1024
Average number of shells per batch           ...    45.23 (75.38%)
Average number of basis functions per batch  ...    96.16 (75.13%)
Average number of large shells per batch     ...    36.66 (81.05%)
Average number of large basis fcns per batch ...    76.73 (79.79%)
Maximum spatial batch extension              ...  19.20, 15.92, 24.66 au
Average spatial batch extension              ...   3.87,  3.70,  5.65 au

Overlap Fitting                  UseSFitting ... on
Constructing numerical overlap ... done (      0.1 sec)
Inverting numerical overlap    ... done (      0.0 sec)
Obtaining analytic overlap     ... done (      0.0 sec)
Final contraction and storage  ... done (      0.0 sec)

Time for X-Grid setup             =    0.614 sec
--------------
SCF ITERATIONS
--------------
ITER       Energy         Delta-E        Max-DP      RMS-DP      [F,P]     Damp
               ***  Starting incremental Fock matrix formation  ***
  0   -306.9601661124   0.000000000000 0.01500220  0.00065325  0.2195663 0.8500
  1   -306.9942927264  -0.034126614001 0.01277994  0.00061897  0.1691922 0.8500
                               ***Turning on DIIS***
  2   -307.0195349563  -0.025242229960 0.00963972  0.00050835  0.1244784 0.8500
  3   -307.0379696430  -0.018434686721 0.00649779  0.00037868  0.0908132 0.8500
  4   -307.0520516747  -0.014082031664 0.00527493  0.00029702  0.0720009 0.8500
  5   -307.0630829784  -0.011031303712 0.00437709  0.00024395  0.0597925 0.8500
  6   -307.0720289006  -0.008945922180 0.00369619  0.00020486  0.0503972 0.8500
  7   -307.0794176951  -0.007388794463 0.00315928  0.00017462  0.0426801 0.8500
  8   -307.0855885666  -0.006170871512 0.00269741  0.00014896  0.0359352 0.8500
  9   -307.0907520000  -0.005163433403 0.00229332  0.00012671  0.0302271 0.8500
 10   -307.0950786008  -0.004326600817 0.01296499  0.00071706  0.0254660 0.0000
 11   -307.1185736400  -0.023495039236 0.00037355  0.00001523  0.0012799 0.0000
 12   -307.1185797758  -0.000006135780 0.00007352  0.00000418  0.0001276 0.0000
               *** Restarting incremental Fock matrix formation ***
                                   *** Resetting DIIS ***
 13   -307.1185986774  -0.000018901565 0.00005907  0.00000283  0.0000643 0.0000
                 **** Energy Check signals convergence ****

               *****************************************************
               *                     SUCCESS                       *
               *           SCF CONVERGED AFTER  14 CYCLES          *
               *****************************************************


------------------------------------------------------------------------------
                          SCF STABILITY ANALYSIS                              
------------------------------------------------------------------------------


---------------
TD-DFT XC SETUP
---------------

DFT calculation                         ... on
Name of the grid file                   ... /scratch/ch1tk/orca.15125/wB97XD3_def2-SVP_toluene_S0_TDA6S_0-80.grid.tmp
Exchange functional (SCF)               ... WB97X-D3
Exchange functional (TD-DFT)            ... WB97X-D3
Correlation functional (SCF)            ... WB97X-D3
Correlation functional (TD-DFT)         ... WB97X-D3
Hybrid DFT                              ... on
   Exchange mixing (SCF)                ...  0.196
   Exchange mixing (TD-DFT)             ...  0.196
   GGA exch. scaling(SCF)               ...  0.000
   GGA exch. scaling (TD-DFT)           ...  0.000
   GGA corr. scaling (SCF)              ...  1.000
   GGA corr. scaling (TD-DFT)           ...  1.000
Range-Separated Exchange                ... on
   Range Range separation parameter mu  .... 0.250
   Max. amount of RS exchange (SCF)     ...  0.804
   Max. amount of RS exchange (TD-DFT)  ...  0.804

Electron density on the grid   ... found on disk
Building xc-kernel on the grid ... done
                    *** TD-DFT CALCULATION INITIALIZED ***

                       ****Iteration    0****

   Memory handling for direct AO based CIS:
   Memory per vector needed      ...     1 MB
   Memory needed                 ...     7 MB
   Memory available              ...  1024 MB
   Number of vectors per batch   ...   783
   Number of batches             ...     1
   Time for densities:     0.007
   Time for XC-Integration:     1.579
   Time for K (COSX):    10.584
   Time for RI-J (Direct):     1.291
   Time for Sigma-Completion:     0.028
   Lowest Energy          :     0.115319880487
   Maximum Energy change  :     0.164661038238 (vector 2)
   Maximum residual norm  :     0.016263039772

                       ****Iteration    1****
   Time for densities:     0.003
   Time for XC-Integration:     0.911
   Time for K (COSX):    10.873
   Time for RI-J (Direct):     0.130
   Time for Sigma-Completion:     0.014
   Lowest Energy          :     0.080734090455
   Maximum Energy change  :     0.034585790032 (vector 0)
   Maximum residual norm  :     0.000648467679

                       ****Iteration    2****
   Time for densities:     0.003
   Time for XC-Integration:     0.915
   Time for K (COSX):    10.808
   Time for RI-J (Direct):     0.128
   Time for Sigma-Completion:     0.014
   Lowest Energy          :     0.079842233606
   Maximum Energy change  :     0.000891856850 (vector 0)
   Maximum residual norm  :     0.000049339698

      *** CONVERGENCE OF RESIDUAL NORM REACHED ***

----------------------------- 
SCF STABILITY ANALYSIS RESULT 
----------------------------- 

UHF/UKS->UHF/UKS - singlet - internal

   Root    Eigenvalue (au) 
     0       0.079842 
     1       0.137058 
     2       0.157775 

Stability Analysis indicates a stable HF/KS wave function.


Total time for performing the stability analysis:    37.329sec

Setting up the final grid:

General Integration Accuracy     IntAcc      ...  4.670
Radial Grid Type                 RadialGrid  ... Gauss-Chebyshev
Angular Grid (max. acc.)         AngularGrid ... Lebedev-302
Angular grid pruning method      GridPruning ... 3 (G Style)
Weight generation scheme         WeightScheme... Becke
Basis function cutoff            BFCut       ...    1.0000e-10
Integration weight cutoff        WCut        ...    1.0000e-14
Grids for H and He will be reduced by one unit

# of grid points (after initial pruning)     ...  63848 (   0.0 sec)
# of grid points (after weights+screening)   ...  58984 (   0.1 sec)
nearest neighbour list constructed           ...    0.0 sec
Grid point re-assignment to atoms done       ...    0.0 sec
Grid point division into batches done        ...    0.2 sec
Reduced shell lists constructed in    0.8 sec

Total number of grid points                  ...    58984
Total number of batches                      ...      930
Average number of points per batch           ...       63
Average number of grid points per atom       ...     4537
Average number of shells per batch           ...    40.61 (67.68%)
Average number of basis functions per batch  ...    85.82 (67.05%)
Average number of large shells per batch     ...    32.25 (79.41%)
Average number of large basis fcns per batch ...    67.07 (78.15%)
Maximum spatial batch extension              ...  18.58, 16.67, 23.17 au
Average spatial batch extension              ...   2.50,  2.56,  3.06 au

Final grid set up in    0.9 sec
Final integration                            ... done (   1.3 sec)
Change in XC energy                          ...     0.000498108
Integrated number of electrons               ...    49.999929655
Previous integrated no of electrons          ...    49.998106415
Old exchange energy                            =    -13.477740494 Eh
New exchange energy                            =    -13.478032944 Eh
Exchange energy change after final integration =     -0.000292450 Eh
Total energy after final integration           =   -307.118393083 Eh
Final COS-X integration done in                =     8.274 sec

----------------
TOTAL SCF ENERGY
----------------

Total Energy       :         -307.11839308 Eh           -8357.11634 eV

Components:
Nuclear Repulsion  :          272.39965165 Eh            7412.37136 eV
Electronic Energy  :         -579.51804473 Eh          -15769.48770 eV
One Electron Energy:         -954.33529191 Eh          -25968.78352 eV
Two Electron Energy:          374.81724718 Eh           10199.29582 eV

Virial components:
Potential Energy   :         -611.48428501 Eh          -16639.33332 eV
Kinetic Energy     :          304.36589193 Eh            8282.21698 eV
Virial Ratio       :            2.00904340


DFT components:
N(Alpha)           :       24.999964827429 electrons
N(Beta)            :       24.999964827429 electrons
N(Total)           :       49.999929654858 electrons
E(XC)              :      -29.862381204541 Eh       

---------------
SCF CONVERGENCE
---------------

  Last Energy change         ...   -6.3361e-08  Tolerance :   1.0000e-06
  Last MAX-Density change    ...    0.0000e+00  Tolerance :   1.0000e-05
  Last RMS-Density change    ...    0.0000e+00  Tolerance :   1.0000e-06
  Last DIIS Error            ...    4.3780e-05  Tolerance :   1.0000e-06

             **** THE GBW FILE WAS UPDATED (/scratch/ch1tk/orca.15125/wB97XD3_def2-SVP_toluene_S0_TDA6S_0-80.gbw) ****
             **** DENSITY FILE WAS UPDATED (/scratch/ch1tk/orca.15125/wB97XD3_def2-SVP_toluene_S0_TDA6S_0-80.scfp.tmp) ****
             **** ENERGY FILE WAS UPDATED (/scratch/ch1tk/orca.15125/wB97XD3_def2-SVP_toluene_S0_TDA6S_0-80.en.tmp) ****
----------------------
UHF SPIN CONTAMINATION
----------------------

Warning: in a DFT calculation there is little theoretical justification to 
         calculate <S**2> as in Hartree-Fock theory. We will do it anyways
         but you should keep in mind that the values have only limited relevance

Expectation value of <S**2>     :    -0.000000
Ideal value S*(S+1) for S=0.0   :     0.000000
Deviation                       :    -0.000000

----------------
ORBITAL ENERGIES
----------------
                 SPIN UP ORBITALS
  NO   OCC          E(Eh)            E(eV) 
   0   1.0000     -19.258500      -524.0504 
   1   1.0000     -10.354992      -281.7737 
   2   1.0000     -10.298220      -280.2288 
   3   1.0000     -10.296182      -280.1734 
   4   1.0000     -10.294106      -280.1169 
   5   1.0000     -10.287563      -279.9388 
   6   1.0000     -10.287296      -279.9316 
   7   1.0000      -1.208550       -32.8863 
   8   1.0000      -0.967606       -26.3299 
   9   1.0000      -0.860898       -23.4262 
  10   1.0000      -0.854355       -23.2482 
  11   1.0000      -0.745297       -20.2806 
  12   1.0000      -0.712193       -19.3797 
  13   1.0000      -0.660097       -17.9622 
  14   1.0000      -0.602917       -16.4062 
  15   1.0000      -0.571206       -15.5433 
  16   1.0000      -0.538685       -14.6584 
  17   1.0000      -0.523090       -14.2340 
  18   1.0000      -0.522159       -14.2087 
  19   1.0000      -0.494034       -13.4433 
  20   1.0000      -0.457906       -12.4603 
  21   1.0000      -0.443975       -12.0812 
  22   1.0000      -0.434296       -11.8178 
  23   1.0000      -0.344545        -9.3755 
  24   1.0000      -0.312281        -8.4976 
  25   0.0000       0.067009         1.8234 
  26   0.0000       0.083418         2.2699 
  27   0.0000       0.148029         4.0281 
  28   0.0000       0.170770         4.6469 
  29   0.0000       0.195140         5.3100 
  30   0.0000       0.207538         5.6474 
  31   0.0000       0.237583         6.4649 
  32   0.0000       0.248329         6.7574 
  33   0.0000       0.253773         6.9055 
  34   0.0000       0.330160         8.9841 
  35   0.0000       0.368464        10.0264 
  36   0.0000       0.378832        10.3085 
  37   0.0000       0.387748        10.5512 
  38   0.0000       0.415983        11.3195 
  39   0.0000       0.448548        12.2056 
  40   0.0000       0.502233        13.6664 
  41   0.0000       0.502809        13.6821 
  42   0.0000       0.526292        14.3211 
  43   0.0000       0.534859        14.5542 
  44   0.0000       0.564103        15.3500 
  45   0.0000       0.587019        15.9736 
  46   0.0000       0.602729        16.4011 
  47   0.0000       0.631971        17.1968 
  48   0.0000       0.633819        17.2471 
  49   0.0000       0.640037        17.4163 
  50   0.0000       0.665324        18.1044 
  51   0.0000       0.701305        19.0835 
  52   0.0000       0.709890        19.3171 
  53   0.0000       0.728835        19.8326 
  54   0.0000       0.748582        20.3699 
  55   0.0000       0.767127        20.8746 
  56   0.0000       0.783403        21.3175 
  57   0.0000       0.786271        21.3955 
  58   0.0000       0.822733        22.3877 
  59   0.0000       0.833926        22.6923 
  60   0.0000       0.841562        22.9001 
  61   0.0000       0.854440        23.2505 
  62   0.0000       0.900407        24.5013 
  63   0.0000       0.921489        25.0750 
  64   0.0000       0.939550        25.5665 
  65   0.0000       1.023158        27.8415 
  66   0.0000       1.029676        28.0189 
  67   0.0000       1.084086        29.4995 
  68   0.0000       1.141204        31.0538 
  69   0.0000       1.163519        31.6610 
  70   0.0000       1.277977        34.7755 
  71   0.0000       1.305828        35.5334 
  72   0.0000       1.319855        35.9151 
  73   0.0000       1.332651        36.2633 
  74   0.0000       1.337732        36.4015 
  75   0.0000       1.371479        37.3199 
  76   0.0000       1.373090        37.3637 
  77   0.0000       1.395405        37.9709 
  78   0.0000       1.485078        40.4110 
  79   0.0000       1.586100        43.1600 
  80   0.0000       1.644421        44.7470 
  81   0.0000       1.652280        44.9608 
  82   0.0000       1.754304        47.7370 
  83   0.0000       1.765900        48.0526 
  84   0.0000       1.792049        48.7641 
  85   0.0000       1.829255        49.7766 
  86   0.0000       1.842122        50.1267 
  87   0.0000       1.845068        50.2068 
  88   0.0000       1.863318        50.7035 
  89   0.0000       1.876423        51.0601 
  90   0.0000       1.890200        51.4350 
  91   0.0000       1.902869        51.7797 
  92   0.0000       1.932376        52.5826 
  93   0.0000       1.964110        53.4462 
  94   0.0000       2.011673        54.7404 
  95   0.0000       2.045441        55.6593 
  96   0.0000       2.076105        56.4937 
  97   0.0000       2.082532        56.6686 
  98   0.0000       2.139249        58.2119 
  99   0.0000       2.196747        59.7765 
 100   0.0000       2.236184        60.8497 
 101   0.0000       2.238027        60.8998 
 102   0.0000       2.290552        62.3291 
 103   0.0000       2.315108        62.9973 
 104   0.0000       2.379153        64.7400 
 105   0.0000       2.383432        64.8565 
 106   0.0000       2.406263        65.4778 
 107   0.0000       2.443444        66.4895 
 108   0.0000       2.445166        66.5364 
 109   0.0000       2.603721        70.8509 
 110   0.0000       2.660921        72.4073 
 111   0.0000       2.708104        73.6912 
 112   0.0000       2.735288        74.4310 
 113   0.0000       2.751239        74.8650 
 114   0.0000       2.793433        76.0132 
 115   0.0000       2.826414        76.9106 
 116   0.0000       2.833232        77.0962 
 117   0.0000       2.950307        80.2819 
 118   0.0000       2.980637        81.1072 
 119   0.0000       3.034964        82.5856 
 120   0.0000       3.111841        84.6775 
 121   0.0000       3.172226        86.3207 
 122   0.0000       3.243031        88.2474 
 123   0.0000       3.262616        88.7803 
 124   0.0000       3.400166        92.5232 
 125   0.0000       3.602488        98.0287 
 126   0.0000       3.773951       102.6944 
 127   0.0000       4.147702       112.8647 

                 SPIN DOWN ORBITALS
  NO   OCC          E(Eh)            E(eV) 
   0   1.0000     -19.258500      -524.0504 
   1   1.0000     -10.354992      -281.7737 
   2   1.0000     -10.298220      -280.2288 
   3   1.0000     -10.296182      -280.1734 
   4   1.0000     -10.294106      -280.1169 
   5   1.0000     -10.287563      -279.9388 
   6   1.0000     -10.287296      -279.9316 
   7   1.0000      -1.208550       -32.8863 
   8   1.0000      -0.967606       -26.3299 
   9   1.0000      -0.860898       -23.4262 
  10   1.0000      -0.854355       -23.2482 
  11   1.0000      -0.745297       -20.2806 
  12   1.0000      -0.712193       -19.3797 
  13   1.0000      -0.660097       -17.9622 
  14   1.0000      -0.602917       -16.4062 
  15   1.0000      -0.571206       -15.5433 
  16   1.0000      -0.538685       -14.6584 
  17   1.0000      -0.523090       -14.2340 
  18   1.0000      -0.522159       -14.2087 
  19   1.0000      -0.494034       -13.4433 
  20   1.0000      -0.457906       -12.4603 
  21   1.0000      -0.443975       -12.0812 
  22   1.0000      -0.434296       -11.8178 
  23   1.0000      -0.344545        -9.3755 
  24   1.0000      -0.312281        -8.4976 
  25   0.0000       0.067009         1.8234 
  26   0.0000       0.083418         2.2699 
  27   0.0000       0.148029         4.0281 
  28   0.0000       0.170770         4.6469 
  29   0.0000       0.195140         5.3100 
  30   0.0000       0.207538         5.6474 
  31   0.0000       0.237583         6.4649 
  32   0.0000       0.248329         6.7574 
  33   0.0000       0.253773         6.9055 
  34   0.0000       0.330160         8.9841 
  35   0.0000       0.368464        10.0264 
  36   0.0000       0.378832        10.3085 
  37   0.0000       0.387748        10.5512 
  38   0.0000       0.415983        11.3195 
  39   0.0000       0.448548        12.2056 
  40   0.0000       0.502233        13.6664 
  41   0.0000       0.502809        13.6821 
  42   0.0000       0.526292        14.3211 
  43   0.0000       0.534859        14.5542 
  44   0.0000       0.564103        15.3500 
  45   0.0000       0.587019        15.9736 
  46   0.0000       0.602729        16.4011 
  47   0.0000       0.631971        17.1968 
  48   0.0000       0.633819        17.2471 
  49   0.0000       0.640037        17.4163 
  50   0.0000       0.665324        18.1044 
  51   0.0000       0.701305        19.0835 
  52   0.0000       0.709890        19.3171 
  53   0.0000       0.728835        19.8326 
  54   0.0000       0.748582        20.3699 
  55   0.0000       0.767127        20.8746 
  56   0.0000       0.783403        21.3175 
  57   0.0000       0.786271        21.3955 
  58   0.0000       0.822733        22.3877 
  59   0.0000       0.833926        22.6923 
  60   0.0000       0.841562        22.9001 
  61   0.0000       0.854440        23.2505 
  62   0.0000       0.900407        24.5013 
  63   0.0000       0.921489        25.0750 
  64   0.0000       0.939550        25.5665 
  65   0.0000       1.023158        27.8415 
  66   0.0000       1.029676        28.0189 
  67   0.0000       1.084086        29.4995 
  68   0.0000       1.141204        31.0538 
  69   0.0000       1.163519        31.6610 
  70   0.0000       1.277977        34.7755 
  71   0.0000       1.305828        35.5334 
  72   0.0000       1.319855        35.9151 
  73   0.0000       1.332651        36.2633 
  74   0.0000       1.337732        36.4015 
  75   0.0000       1.371479        37.3199 
  76   0.0000       1.373090        37.3637 
  77   0.0000       1.395405        37.9709 
  78   0.0000       1.485078        40.4110 
  79   0.0000       1.586100        43.1600 
  80   0.0000       1.644421        44.7470 
  81   0.0000       1.652280        44.9608 
  82   0.0000       1.754304        47.7370 
  83   0.0000       1.765900        48.0526 
  84   0.0000       1.792049        48.7641 
  85   0.0000       1.829255        49.7766 
  86   0.0000       1.842122        50.1267 
  87   0.0000       1.845068        50.2068 
  88   0.0000       1.863318        50.7035 
  89   0.0000       1.876423        51.0601 
  90   0.0000       1.890200        51.4350 
  91   0.0000       1.902869        51.7797 
  92   0.0000       1.932376        52.5826 
  93   0.0000       1.964110        53.4462 
  94   0.0000       2.011673        54.7404 
  95   0.0000       2.045441        55.6593 
  96   0.0000       2.076105        56.4937 
  97   0.0000       2.082532        56.6686 
  98   0.0000       2.139249        58.2119 
  99   0.0000       2.196747        59.7765 
 100   0.0000       2.236184        60.8497 
 101   0.0000       2.238027        60.8998 
 102   0.0000       2.290552        62.3291 
 103   0.0000       2.315108        62.9973 
 104   0.0000       2.379153        64.7400 
 105   0.0000       2.383432        64.8565 
 106   0.0000       2.406263        65.4778 
 107   0.0000       2.443444        66.4895 
 108   0.0000       2.445166        66.5364 
 109   0.0000       2.603721        70.8509 
 110   0.0000       2.660921        72.4073 
 111   0.0000       2.708104        73.6912 
 112   0.0000       2.735288        74.4310 
 113   0.0000       2.751239        74.8650 
 114   0.0000       2.793433        76.0132 
 115   0.0000       2.826414        76.9106 
 116   0.0000       2.833232        77.0962 
 117   0.0000       2.950307        80.2819 
 118   0.0000       2.980637        81.1072 
 119   0.0000       3.034964        82.5856 
 120   0.0000       3.111841        84.6775 
 121   0.0000       3.172226        86.3207 
 122   0.0000       3.243031        88.2474 
 123   0.0000       3.262616        88.7803 
 124   0.0000       3.400166        92.5232 
 125   0.0000       3.602488        98.0287 
 126   0.0000       3.773951       102.6944 
 127   0.0000       4.147702       112.8647 

                    ********************************
                    * MULLIKEN POPULATION ANALYSIS *
                    ********************************

--------------------------------------------
MULLIKEN ATOMIC CHARGES AND SPIN POPULATIONS
--------------------------------------------
   0 C :   -0.011679    0.000000
   1 C :   -0.057410    0.000000
   2 C :    0.119464    0.000000
   3 C :   -0.083165    0.000000
   4 C :   -0.015544    0.000000
   5 C :   -0.031126    0.000000
   6 H :    0.023991    0.000000
   7 H :    0.020730    0.000000
   8 H :    0.005069    0.000000
   9 H :    0.022357    0.000000
  10 H :    0.019496    0.000000
  11 O :   -0.086687    0.000000
  12 H :    0.074503    0.000000
Sum of atomic charges         :   -0.0000000
Sum of atomic spin populations:    0.0000000

-----------------------------------------------------
MULLIKEN REDUCED ORBITAL CHARGES AND SPIN POPULATIONS
-----------------------------------------------------
CHARGE
  0 C s       :     3.149644  s :     3.149644
      pz      :     0.967854  p :     2.825994
      px      :     0.915751
      py      :     0.942389
      dz2     :     0.002538  d :     0.036042
      dxz     :     0.003813
      dyz     :     0.006569
      dx2y2   :     0.011023
      dxy     :     0.012098
  1 C s       :     3.216203  s :     3.216203
      pz      :     1.039638  p :     2.808955
      px      :     0.888273
      py      :     0.881044
      dz2     :     0.002613  d :     0.032252
      dxz     :     0.003352
      dyz     :     0.005355
      dx2y2   :     0.008616
      dxy     :     0.012316
  2 C s       :     2.991388  s :     2.991388
      pz      :     0.958418  p :     2.810303
      px      :     1.051614
      py      :     0.800270
      dz2     :     0.005594  d :     0.078846
      dxz     :     0.007498
      dyz     :     0.018389
      dx2y2   :     0.025932
      dxy     :     0.021432
  3 C s       :     3.185192  s :     3.185192
      pz      :     1.078232  p :     2.865328
      px      :     0.872370
      py      :     0.914727
      dz2     :     0.002688  d :     0.032645
      dxz     :     0.003475
      dyz     :     0.005335
      dx2y2   :     0.008687
      dxy     :     0.012461
  4 C s       :     3.150558  s :     3.150558
      pz      :     0.969325  p :     2.828833
      px      :     0.914152
      py      :     0.945357
      dz2     :     0.002561  d :     0.036153
      dxz     :     0.003663
      dyz     :     0.006879
      dx2y2   :     0.011406
      dxy     :     0.011644
  5 C s       :     3.144129  s :     3.144129
      pz      :     1.028089  p :     2.852558
      px      :     0.956582
      py      :     0.867887
      dz2     :     0.002547  d :     0.034438
      dxz     :     0.006317
      dyz     :     0.002518
      dx2y2   :     0.012448
      dxy     :     0.010607
  6 H s       :     0.953493  s :     0.953493
      pz      :     0.004403  p :     0.022516
      px      :     0.011682
      py      :     0.006431
  7 H s       :     0.956507  s :     0.956507
      pz      :     0.004698  p :     0.022763
      px      :     0.011871
      py      :     0.006194
  8 H s       :     0.972070  s :     0.972070
      pz      :     0.005128  p :     0.022861
      px      :     0.011713
      py      :     0.006020
  9 H s       :     0.955102  s :     0.955102
      pz      :     0.004489  p :     0.022541
      px      :     0.012142
      py      :     0.005910
 10 H s       :     0.957517  s :     0.957517
      pz      :     0.004842  p :     0.022987
      px      :     0.003058
      py      :     0.015086
 11 O s       :     3.552367  s :     3.552367
      pz      :     1.828191  p :     4.516729
      px      :     1.407464
      py      :     1.281074
      dz2     :     0.002675  d :     0.017590
      dxz     :     0.001142
      dyz     :     0.002109
      dx2y2   :     0.007521
      dxy     :     0.004144
 12 H s       :     0.835573  s :     0.835573
      pz      :     0.030278  p :     0.089924
      px      :     0.033764
      py      :     0.025882

SPIN
  0 C s       :     0.000000  s :     0.000000
      pz      :     0.000000  p :     0.000000
      px      :     0.000000
      py      :     0.000000
      dz2     :     0.000000  d :     0.000000
      dxz     :     0.000000
      dyz     :     0.000000
      dx2y2   :     0.000000
      dxy     :     0.000000
  1 C s       :     0.000000  s :     0.000000
      pz      :     0.000000  p :     0.000000
      px      :     0.000000
      py      :     0.000000
      dz2     :     0.000000  d :     0.000000
      dxz     :     0.000000
      dyz     :     0.000000
      dx2y2   :     0.000000
      dxy     :     0.000000
  2 C s       :     0.000000  s :     0.000000
      pz      :     0.000000  p :     0.000000
      px      :     0.000000
      py      :     0.000000
      dz2     :     0.000000  d :     0.000000
      dxz     :     0.000000
      dyz     :     0.000000
      dx2y2   :     0.000000
      dxy     :     0.000000
  3 C s       :     0.000000  s :     0.000000
      pz      :     0.000000  p :     0.000000
      px      :     0.000000
      py      :     0.000000
      dz2     :     0.000000  d :     0.000000
      dxz     :     0.000000
      dyz     :     0.000000
      dx2y2   :     0.000000
      dxy     :     0.000000
  4 C s       :     0.000000  s :     0.000000
      pz      :     0.000000  p :     0.000000
      px      :     0.000000
      py      :     0.000000
      dz2     :     0.000000  d :     0.000000
      dxz     :     0.000000
      dyz     :     0.000000
      dx2y2   :     0.000000
      dxy     :     0.000000
  5 C s       :     0.000000  s :     0.000000
      pz      :     0.000000  p :     0.000000
      px      :     0.000000
      py      :     0.000000
      dz2     :     0.000000  d :     0.000000
      dxz     :     0.000000
      dyz     :     0.000000
      dx2y2   :     0.000000
      dxy     :     0.000000
  6 H s       :     0.000000  s :     0.000000
      pz      :     0.000000  p :     0.000000
      px      :     0.000000
      py      :     0.000000
  7 H s       :     0.000000  s :     0.000000
      pz      :     0.000000  p :     0.000000
      px      :     0.000000
      py      :     0.000000
  8 H s       :     0.000000  s :     0.000000
      pz      :     0.000000  p :     0.000000
      px      :     0.000000
      py      :     0.000000
  9 H s       :     0.000000  s :     0.000000
      pz      :     0.000000  p :     0.000000
      px      :     0.000000
      py      :     0.000000
 10 H s       :     0.000000  s :     0.000000
      pz      :     0.000000  p :     0.000000
      px      :     0.000000
      py      :     0.000000
 11 O s       :     0.000000  s :     0.000000
      pz      :     0.000000  p :     0.000000
      px      :     0.000000
      py      :     0.000000
      dz2     :     0.000000  d :     0.000000
      dxz     :     0.000000
      dyz     :     0.000000
      dx2y2   :     0.000000
      dxy     :     0.000000
 12 H s       :     0.000000  s :     0.000000
      pz      :     0.000000  p :     0.000000
      px      :     0.000000
      py      :     0.000000


                     *******************************
                     * LOEWDIN POPULATION ANALYSIS *
                     *******************************

-------------------------------------------
LOEWDIN ATOMIC CHARGES AND SPIN POPULATIONS
-------------------------------------------
   0 C :   -0.016710    0.000000
   1 C :   -0.059923    0.000000
   2 C :    0.061635    0.000000
   3 C :   -0.087699    0.000000
   4 C :   -0.017903    0.000000
   5 C :   -0.059528    0.000000
   6 H :    0.034376    0.000000
   7 H :    0.037958    0.000000
   8 H :    0.029860    0.000000
   9 H :    0.034112    0.000000
  10 H :    0.031119    0.000000
  11 O :    0.049616    0.000000
  12 H :   -0.036913    0.000000

----------------------------------------------------
LOEWDIN REDUCED ORBITAL CHARGES AND SPIN POPULATIONS
----------------------------------------------------
CHARGE
  0 C s       :     2.858618  s :     2.858618
      pz      :     0.951091  p :     3.065797
      px      :     1.052051
      py      :     1.062655
      dz2     :     0.005928  d :     0.092295
      dxz     :     0.007170
      dyz     :     0.013457
      dx2y2   :     0.031434
      dxy     :     0.034305
  1 C s       :     2.859937  s :     2.859937
      pz      :     1.018590  p :     3.114115
      px      :     1.036703
      py      :     1.058821
      dz2     :     0.006263  d :     0.085872
      dxz     :     0.005957
      dyz     :     0.010914
      dx2y2   :     0.027245
      dxy     :     0.035493
  2 C s       :     2.835449  s :     2.835449
      pz      :     0.945995  p :     2.928423
      px      :     1.108158
      py      :     0.874269
      dz2     :     0.011026  d :     0.174493
      dxz     :     0.015027
      dyz     :     0.035618
      dx2y2   :     0.059448
      dxy     :     0.053374
  3 C s       :     2.858464  s :     2.858464
      pz      :     1.049408  p :     3.141954
      px      :     1.030985
      py      :     1.061561
      dz2     :     0.006421  d :     0.087281
      dxz     :     0.006289
      dyz     :     0.010894
      dx2y2   :     0.027558
      dxy     :     0.036119
  4 C s       :     2.857745  s :     2.857745
      pz      :     0.954670  p :     3.067455
      px      :     1.052875
      py      :     1.059911
      dz2     :     0.005995  d :     0.092703
      dxz     :     0.006792
      dyz     :     0.014323
      dx2y2   :     0.032526
      dxy     :     0.033067
  5 C s       :     2.855797  s :     2.855797
      pz      :     1.008433  p :     3.113997
      px      :     1.065183
      py      :     1.040382
      dz2     :     0.006060  d :     0.089733
      dxz     :     0.013255
      dyz     :     0.004113
      dx2y2   :     0.035358
      dxy     :     0.030947
  6 H s       :     0.899401  s :     0.899401
      pz      :     0.013441  p :     0.066223
      px      :     0.033671
      py      :     0.019111
  7 H s       :     0.893417  s :     0.893417
      pz      :     0.015198  p :     0.068625
      px      :     0.034884
      py      :     0.018543
  8 H s       :     0.902118  s :     0.902118
      pz      :     0.016147  p :     0.068022
      px      :     0.033670
      py      :     0.018205
  9 H s       :     0.899584  s :     0.899584
      pz      :     0.013588  p :     0.066304
      px      :     0.034870
      py      :     0.017846
 10 H s       :     0.901369  s :     0.901369
      pz      :     0.015067  p :     0.067511
      px      :     0.010861
      py      :     0.041584
 11 O s       :     3.295304  s :     3.295304
      pz      :     1.755211  p :     4.620216
      px      :     1.545553
      py      :     1.319452
      dz2     :     0.005726  d :     0.034864
      dxz     :     0.000154
      dyz     :     0.003727
      dx2y2   :     0.016490
      dxy     :     0.008767
 12 H s       :     0.761793  s :     0.761793
      pz      :     0.095470  p :     0.275120
      px      :     0.110437
      py      :     0.069214

SPIN
  0 C s       :     0.000000  s :     0.000000
      pz      :     0.000000  p :     0.000000
      px      :     0.000000
      py      :     0.000000
      dz2     :     0.000000  d :     0.000000
      dxz     :     0.000000
      dyz     :     0.000000
      dx2y2   :     0.000000
      dxy     :     0.000000
  1 C s       :     0.000000  s :     0.000000
      pz      :     0.000000  p :     0.000000
      px      :     0.000000
      py      :     0.000000
      dz2     :     0.000000  d :     0.000000
      dxz     :     0.000000
      dyz     :     0.000000
      dx2y2   :     0.000000
      dxy     :     0.000000
  2 C s       :     0.000000  s :     0.000000
      pz      :     0.000000  p :     0.000000
      px      :     0.000000
      py      :     0.000000
      dz2     :     0.000000  d :     0.000000
      dxz     :     0.000000
      dyz     :     0.000000
      dx2y2   :     0.000000
      dxy     :     0.000000
  3 C s       :     0.000000  s :     0.000000
      pz      :     0.000000  p :     0.000000
      px      :     0.000000
      py      :     0.000000
      dz2     :     0.000000  d :     0.000000
      dxz     :     0.000000
      dyz     :     0.000000
      dx2y2   :     0.000000
      dxy     :     0.000000
  4 C s       :     0.000000  s :     0.000000
      pz      :     0.000000  p :     0.000000
      px      :     0.000000
      py      :     0.000000
      dz2     :     0.000000  d :     0.000000
      dxz     :     0.000000
      dyz     :     0.000000
      dx2y2   :     0.000000
      dxy     :     0.000000
  5 C s       :     0.000000  s :     0.000000
      pz      :     0.000000  p :     0.000000
      px      :     0.000000
      py      :     0.000000
      dz2     :     0.000000  d :     0.000000
      dxz     :     0.000000
      dyz     :     0.000000
      dx2y2   :     0.000000
      dxy     :     0.000000
  6 H s       :     0.000000  s :     0.000000
      pz      :     0.000000  p :     0.000000
      px      :     0.000000
      py      :     0.000000
  7 H s       :     0.000000  s :     0.000000
      pz      :     0.000000  p :     0.000000
      px      :     0.000000
      py      :     0.000000
  8 H s       :     0.000000  s :     0.000000
      pz      :     0.000000  p :     0.000000
      px      :     0.000000
      py      :     0.000000
  9 H s       :     0.000000  s :     0.000000
      pz      :     0.000000  p :     0.000000
      px      :     0.000000
      py      :     0.000000
 10 H s       :     0.000000  s :     0.000000
      pz      :     0.000000  p :     0.000000
      px      :     0.000000
      py      :     0.000000
 11 O s       :     0.000000  s :     0.000000
      pz      :     0.000000  p :     0.000000
      px      :     0.000000
      py      :     0.000000
      dz2     :     0.000000  d :     0.000000
      dxz     :     0.000000
      dyz     :     0.000000
      dx2y2   :     0.000000
      dxy     :     0.000000
 12 H s       :     0.000000  s :     0.000000
      pz      :     0.000000  p :     0.000000
      px      :     0.000000
      py      :     0.000000


                      *****************************
                      * MAYER POPULATION ANALYSIS *
                      *****************************

  NA   - Mulliken gross atomic population
  ZA   - Total nuclear charge
  QA   - Mulliken gross atomic charge
  VA   - Mayer's total valence
  BVA  - Mayer's bonded valence
  FA   - Mayer's free valence

  ATOM       NA         ZA         QA         VA         BVA        FA
  0 C      6.0117     6.0000    -0.0117     3.8692     3.8692    -0.0000
  1 C      6.0574     6.0000    -0.0574     3.8618     3.8618    -0.0000
  2 C      5.8805     6.0000     0.1195     4.0475     4.0475     0.0000
  3 C      6.0832     6.0000    -0.0832     3.8111     3.8111    -0.0000
  4 C      6.0155     6.0000    -0.0155     3.9022     3.9022     0.0000
  5 C      6.0311     6.0000    -0.0311     3.8544     3.8544     0.0000
  6 H      0.9760     1.0000     0.0240     0.9847     0.9847    -0.0000
  7 H      0.9793     1.0000     0.0207     0.9981     0.9981     0.0000
  8 H      0.9949     1.0000     0.0051     0.9942     0.9942    -0.0000
  9 H      0.9776     1.0000     0.0224     0.9846     0.9846    -0.0000
 10 H      0.9805     1.0000     0.0195     0.9850     0.9850     0.0000
 11 O      8.0867     8.0000    -0.0867     2.2898     2.2898     0.0000
 12 H      0.9255     1.0000     0.0745     1.0930     1.0930     0.0000

  Mayer bond orders larger than 0.1
B(  0-C ,  1-C ) :   1.4068 B(  0-C ,  5-C ) :   1.3845 B(  0-C ,  6-H ) :   0.9874 
B(  1-C ,  2-C ) :   1.3673 B(  1-C ,  7-H ) :   0.9941 B(  2-C ,  3-C ) :   1.3453 
B(  2-C , 11-O ) :   1.1857 B(  3-C ,  4-C ) :   1.3946 B(  3-C ,  8-H ) :   0.9862 
B(  4-C ,  5-C ) :   1.4101 B(  4-C ,  9-H ) :   0.9852 B(  5-C , 10-H ) :   0.9918 
B( 11-O , 12-H ) :   1.0424 

-------
TIMINGS
-------

Total SCF time: 0 days 0 hours 1 min 52 sec 

Total time                  ....     112.024 sec
Sum of individual times     ....     111.156 sec  ( 99.2%)

Fock matrix formation       ....      71.478 sec  ( 63.8%)
  Split-RI-J                ....       6.101 sec  (  8.5% of F)
  Chain of spheres X        ....      58.977 sec  ( 82.5% of F)
  COS-X 1 center corr.      ....       0.000 sec  (  0.0% of F)
  XC integration            ....       6.369 sec  (  8.9% of F)
    Basis function eval.    ....       1.702 sec  ( 26.7% of XC)
    Density eval.           ....       1.221 sec  ( 19.2% of XC)
    XC-Functional eval.     ....       1.030 sec  ( 16.2% of XC)
    XC-Potential eval.      ....       2.336 sec  ( 36.7% of XC)
Diagonalization             ....       0.115 sec  (  0.1%)
Density matrix formation    ....       0.006 sec  (  0.0%)
Population analysis         ....       0.011 sec  (  0.0%)
Initial guess               ....       0.448 sec  (  0.4%)
Orbital Transformation      ....       0.000 sec  (  0.0%)
Orbital Orthonormalization  ....       0.000 sec  (  0.0%)
DIIS solution               ....       0.028 sec  (  0.0%)
Grid generation             ....       1.741 sec  (  1.6%)
SCF Stability Analysis      ....      37.329 sec  ( 33.3%)
------------------------------------------------------------------------------
                        ORCA TD-DFT/TDA CALCULATION
------------------------------------------------------------------------------

Input orbitals are from        ... /scratch/ch1tk/orca.15125/wB97XD3_def2-SVP_toluene_S0_TDA6S_0-80.gbw
CI-vector output               ... /scratch/ch1tk/orca.15125/wB97XD3_def2-SVP_toluene_S0_TDA6S_0-80.cis
Tamm-Dancoff approximation     ... operative
CIS-Integral strategy          ... AO-integrals
Integral handling              ... AO integral Direct
Max. core memory used          ... 512 MB
Reference state                ... UHF
Number of operators            ... 2
Orbital ranges used for CIS calculation:
 Operator 0:  Orbitals   7... 24  to  25...127
 Operator 1:  Orbitals   7... 24  to  25...127
XAS localization array:
 Operator 0:  Orbitals  -1... -1
 Operator 1:  Orbitals  -1... -1
-------------------
XC-INTEGRATION GRID
-------------------

General Integration Accuracy     IntAcc      ...  3.670
Radial Grid Type                 RadialGrid  ... Gauss-Chebyshev
Angular Grid (max. acc.)         AngularGrid ... Lebedev-50
Angular grid pruning method      GridPruning ... 3 (G Style)
Weight generation scheme         WeightScheme... Becke
Basis function cutoff            BFCut       ...    1.0000e-10
Integration weight cutoff        WCut        ...    1.0000e-14
Grids for H and He will be reduced by one unit

# of grid points (after initial pruning)     ...   7582 (   0.0 sec)
# of grid points (after weights+screening)   ...   7143 (   0.0 sec)
nearest neighbour list constructed           ...    0.0 sec
Grid point re-assignment to atoms done       ...    0.0 sec
Grid point division into batches done        ...    0.0 sec
Reduced shell lists constructed in    0.1 sec

Total number of grid points                  ...     7143
Total number of batches                      ...      117
Average number of points per batch           ...       61
Average number of grid points per atom       ...      549
Average number of shells per batch           ...    47.07 (78.45%)
Average number of basis functions per batch  ...   100.49 (78.51%)
Average number of large shells per batch     ...    38.38 (81.54%)
Average number of large basis fcns per batch ...    80.87 (80.48%)
Maximum spatial batch extension              ...  17.81, 15.26, 27.71 au
Average spatial batch extension              ...   4.34,  4.49,  6.93 au

---------------------
COSX-INTEGRATION GRID
---------------------

General Integration Accuracy     IntAcc      ...  2.670
Radial Grid Type                 RadialGrid  ... Gauss-Chebyshev
Angular Grid (max. acc.)         AngularGrid ... Lebedev-50
Angular grid pruning method      GridPruning ... 3 (G Style)
Weight generation scheme         WeightScheme... Becke
Basis function cutoff            BFCut       ...    1.0000e-10
Integration weight cutoff        WCut        ...    1.0000e-14
Grids for H and He will be reduced by one unit

# of grid points (after initial pruning)     ...   4338 (   0.0 sec)
# of grid points (after weights+screening)   ...   4107 (   0.0 sec)
nearest neighbour list constructed           ...    0.0 sec
Grid point re-assignment to atoms done       ...    0.0 sec
Grid point division into batches done        ...    0.0 sec
Reduced shell lists constructed in    0.0 sec

Total number of grid points                  ...     4107
Total number of batches                      ...       72
Average number of points per batch           ...       57
Average number of grid points per atom       ...      316
Average number of shells per batch           ...    47.88 (79.79%)
Average number of basis functions per batch  ...   102.84 (80.34%)
Average number of large shells per batch     ...    39.12 (81.72%)
Average number of large basis fcns per batch ...    82.93 (80.64%)
Maximum spatial batch extension              ...  13.79, 12.25, 24.03 au
Average spatial batch extension              ...   4.68,  4.84,  7.53 au


---------------
TD-DFT XC SETUP
---------------

DFT calculation                         ... on
Name of the grid file                   ... /scratch/ch1tk/orca.15125/wB97XD3_def2-SVP_toluene_S0_TDA6S_0-80.grid_cis.tmp
Exchange functional (SCF)               ... WB97X-D3
Exchange functional (TD-DFT)            ... WB97X-D3
Correlation functional (SCF)            ... WB97X-D3
Correlation functional (TD-DFT)         ... WB97X-D3
Hybrid DFT                              ... on
   Exchange mixing (SCF)                ...  0.196
   Exchange mixing (TD-DFT)             ...  0.196
   GGA exch. scaling(SCF)               ...  0.000
   GGA exch. scaling (TD-DFT)           ...  0.000
   GGA corr. scaling (SCF)              ...  1.000
   GGA corr. scaling (TD-DFT)           ...  1.000
Range-Separated Exchange                ... on
   Range Range separation parameter mu  .... 0.250
   Max. amount of RS exchange (SCF)     ...  0.804
   Max. amount of RS exchange (TD-DFT)  ...  0.804

Building densities             ... done
Calculating rho(r) on the grid ... done
Building xc-kernel on the grid ... done
                    *** TD-DFT CALCULATION INITIALIZED ***


------------------------
DAVIDSON-DIAGONALIZATION
------------------------

Dimension of the eigenvalue problem            ...   3708
Number of roots to be determined               ...      6
Maximum size of the expansion space            ...     60
Convergence tolerance for the residual         ...    1.000e-06
Convergence tolerance for the energies         ...    1.000e-06
Orthogonality tolerance                        ...    1.000e-14
Level Shift                                    ...    0.000e+00
Constructing the preconditioner                ... o.k.
Building the initial guess                     ... o.k.
Number of trial vectors determined             ...     60


                       ****Iteration    0****

   Memory handling for direct AO based CIS:
   Memory per vector needed      ...     1 MB
   Memory needed                 ...    23 MB
   Memory available              ...   512 MB
   Number of vectors per batch   ...   391
   Number of batches             ...     1
   Time for densities:     0.020
   Time for RI-J (Direct):     4.351
   Time for K (COSX):     3.919
   Time for XC-Integration:     2.485
   Time for Sigma-Completion:     0.083
   Size of expansion space: 18
   Lowest Energy          :     0.167684986176
   Maximum Energy change  :     0.264344002312 (vector 5)
   Maximum residual norm  :     0.031818336212

                       ****Iteration    1****
   Time for densities:     0.007
   Time for RI-J (Direct):     1.613
   Time for K (COSX):     3.089
   Time for XC-Integration:     0.892
   Time for Sigma-Completion:     0.028
   Size of expansion space: 24
   Lowest Energy          :     0.155624221474
   Maximum Energy change  :     0.024168951943 (vector 5)
   Maximum residual norm  :     0.000502411310

                       ****Iteration    2****
   Time for densities:     0.007
   Time for RI-J (Direct):     1.608
   Time for K (COSX):     3.106
   Time for XC-Integration:     0.897
   Time for Sigma-Completion:     0.028
   Size of expansion space: 30
   Lowest Energy          :     0.155393823171
   Maximum Energy change  :     0.000807667227 (vector 5)
   Maximum residual norm  :     0.000094767948

                       ****Iteration    3****
   Time for densities:     0.007
   Time for RI-J (Direct):     1.613
   Time for K (COSX):     3.113
   Time for XC-Integration:     0.905
   Time for Sigma-Completion:     0.028
   Size of expansion space: 36
   Lowest Energy          :     0.155376561562
   Maximum Energy change  :     0.000080257614 (vector 5)
   Maximum residual norm  :     0.000005723148

                       ****Iteration    4****
   Time for densities:     0.007
   Time for RI-J (Direct):     1.613
   Time for K (COSX):     3.063
   Time for XC-Integration:     0.885
   Time for Sigma-Completion:     0.028
   Size of expansion space: 42
   Lowest Energy          :     0.155375147134
   Maximum Energy change  :     0.000006392577 (vector 5)
   Maximum residual norm  :     0.000000307107

      *** CONVERGENCE OF RESIDUAL NORM REACHED ***

Storing the converged CI vectors               ... /scratch/ch1tk/orca.15125/wB97XD3_def2-SVP_toluene_S0_TDA6S_0-80.cis1

                 *** DAVIDSON DONE ***

Total time for solving the CIS problem:    33.520sec

-------------------------
TD-DFT/TDA EXCITED STATES
-------------------------

the weight of the individual excitations are printed if larger than 0.01

STATE  1:  E=   0.155375 au      4.228 eV    34100.9 cm**-1
    21a ->  33a  :     0.010147 (c= -0.10073047)
    23a ->  25a  :     0.161962 (c= -0.40244457)
    24a ->  26a  :     0.306812 (c= -0.55390618)
    21b ->  33b  :     0.010147 (c=  0.10073047)
    23b ->  25b  :     0.161962 (c=  0.40244457)
    24b ->  26b  :     0.306812 (c=  0.55390618)

STATE  2:  E=   0.164529 au      4.477 eV    36110.0 cm**-1
    24a ->  25a  :     0.475146 (c= -0.68930862)
    24b ->  25b  :     0.475146 (c=  0.68930862)

STATE  3:  E=   0.179966 au      4.897 eV    39498.0 cm**-1
    23a ->  25a  :     0.325624 (c=  0.57063493)
    24a ->  26a  :     0.170343 (c= -0.41272644)
    23b ->  25b  :     0.325624 (c= -0.57063493)
    24b ->  26b  :     0.170343 (c=  0.41272644)

STATE  4:  E=   0.200599 au      5.459 eV    44026.4 cm**-1
    23a ->  26a  :     0.146200 (c=  0.38236151)
    24a ->  25a  :     0.348794 (c= -0.59058826)
    23b ->  26b  :     0.146200 (c=  0.38236151)
    24b ->  25b  :     0.348794 (c= -0.59058826)

STATE  5:  E=   0.209836 au      5.710 eV    46053.6 cm**-1
    23a ->  26a  :     0.487536 (c= -0.69823746)
    23b ->  26b  :     0.487536 (c=  0.69823746)

STATE  6:  E=   0.239281 au      6.511 eV    52516.1 cm**-1
    23a ->  25a  :     0.181961 (c= -0.42656941)
    24a ->  26a  :     0.303755 (c= -0.55113949)
    23b ->  25b  :     0.181961 (c= -0.42656941)
    24b ->  26b  :     0.303755 (c= -0.55113949)


-----------------------------
TD-DFT/TDA-EXCITATION SPECTRA
-----------------------------

Center of mass = ( -0.0200,  0.0390,  0.0000)
Calculating the Dipole integrals                  ... done
Transforming integrals                            ... done
Calculating the Linear Momentum integrals         ... done
Transforming integrals                            ... done
Calculating angular momentum integrals            ... done
Transforming integrals                            ... done

-----------------------------------------------------------------------------
         ABSORPTION SPECTRUM VIA TRANSITION ELECTRIC DIPOLE MOMENTS
-----------------------------------------------------------------------------
State   Energy  Wavelength   fosc         T2         TX        TY        TZ  
        (cm-1)    (nm)                  (au**2)     (au)      (au)      (au) 
-----------------------------------------------------------------------------
   1   34100.9    293.2   0.000000000   0.00000   0.00000  -0.00000  -0.00000
   2   36110.0    276.9   0.000000000   0.00000  -0.00000   0.00000   0.00000
   3   39498.0    253.2   0.000000000   0.00000  -0.00000  -0.00000  -0.00000
   4   44026.4    227.1   0.034305634   0.25652  -0.50605   0.02085   0.00000
   5   46053.6    217.1   0.000000000   0.00000   0.00000  -0.00000  -0.00000
   6   52516.1    190.4   0.027701816   0.17366  -0.04158  -0.41464  -0.00000

-----------------------------------------------------------------------------
         ABSORPTION SPECTRUM VIA TRANSITION VELOCITY DIPOLE MOMENTS
-----------------------------------------------------------------------------
State   Energy  Wavelength   fosc         P2         PX        PY        PZ  
        (cm-1)    (nm)                  (au**2)     (au)      (au)      (au) 
-----------------------------------------------------------------------------
   1   34100.9    293.2   0.000000000   0.00000  -0.00000  -0.00000   0.00000
   2   36110.0    276.9   0.000000000   0.00000   0.00000  -0.00000   0.00000
   3   39498.0    253.2   0.000000000   0.00000   0.00000  -0.00000   0.00000
   4   44026.4    227.1   0.000198305   0.00006  -0.00770  -0.00063  -0.00000
   5   46053.6    217.1   0.000000000   0.00000  -0.00000  -0.00000   0.00000
   6   52516.1    190.4   0.001652126   0.00059   0.00694   0.02334   0.00000

-------------------------------------------------------------------
                             CD SPECTRUM
-------------------------------------------------------------------
State   Energy Wavelength       R         MX        MY        MZ   
        (cm-1)   (nm)       (1e40*cgs)   (au)      (au)      (au)  
-------------------------------------------------------------------
   1   34100.9    293.2      0.00000   0.00000  -0.00000  -0.00000
   2   36110.0    276.9      0.00000  -0.00000  -0.00000  -0.00000
   3   39498.0    253.2     -0.00000   0.00000   0.00000   0.00000
   4   44026.4    227.1      0.00012  -0.00000   0.00000  -0.18392
   5   46053.6    217.1     -0.00000  -0.00000   0.00000   0.00000
   6   52516.1    190.4     -0.00063  -0.00000   0.00000  -0.00231

Total run time:       34.020 sec

           *** ORCA-CIS/TD-DFT FINISHED WITHOUT ERROR ***

-----------------------
CIS/TD-DFT TOTAL ENERGY
-----------------------

    E(SCF)  =   -307.118393083 Eh
    DE(CIS) =      0.155375147 Eh (Root  1)
    ----------------------------- ---------
    E(tot)  =   -306.963017936 Eh



-------------------------------------------------------------------------------
                          DFT DISPERSION CORRECTION                            
                                                                               
                              DFTD3 V3.1  Rev 1                                
                              USING zero damping                               
-------------------------------------------------------------------------------
The omegaB97X-D3 functional is recognized. Fit by Chai et al.
Active option DFTDOPT                   ...         3   

molecular C6(AA) [au] = 1920.462467 


            DFT-D V3
 parameters
 s6 scaling factor         :     1.0000 
 rs6 scaling factor        :     1.2810 
 s8 scaling factor         :     1.0000 
 rs8 scaling factor        :     1.0940 
 Damping factor alpha6     :    14.0000 
 Damping factor alpha8     :    16.0000 
 ad hoc parameters k1-k3   :    16.0000     1.3333    -4.0000 

 Edisp/kcal,au: -1.762520683031  -0.002808755195 
 E6   /kcal   :  -0.758995377 
 E8   /kcal   :  -1.003525306 
 % E8         :  56.936937846 

-------------------------   ----------------
Dispersion correction           -0.002808755
-------------------------   ----------------


-------------------------   --------------------
FINAL SINGLE POINT ENERGY      -307.121201838398
-------------------------   --------------------


                            ***************************************
                            *     ORCA property calculations      *
                            ***************************************

                                    ---------------------
                                    Active property flags
                                    ---------------------
   (+) Dipole Moment


------------------------------------------------------------------------------
                       ORCA ELECTRIC PROPERTIES CALCULATION
------------------------------------------------------------------------------

Dipole Moment Calculation                       ... on
Quadrupole Moment Calculation                   ... off
Polarizability Calculation                      ... off
GBWName                                         ... /scratch/ch1tk/orca.15125/wB97XD3_def2-SVP_toluene_S0_TDA6S_0-80.gbw
Electron density file                           ... /scratch/ch1tk/orca.15125/wB97XD3_def2-SVP_toluene_S0_TDA6S_0-80.scfp.tmp
The origin for moment calculation is the CENTER OF MASS  = (-0.019965,  0.038999  0.000000)

-------------
DIPOLE MOMENT
-------------
                                X             Y             Z
Electronic contribution:     -0.24531       2.06939      -0.00000
Nuclear contribution   :      0.71662      -2.06833       0.00000
                        -----------------------------------------
Total Dipole Moment    :      0.47130       0.00105      -0.00000
                        -----------------------------------------
Magnitude (a.u.)       :      0.47131
Magnitude (Debye)      :      1.19796


Timings for individual modules:

Sum of individual times         ...      148.975 sec (=   2.483 min)
GTO integral calculation        ...        1.475 sec (=   0.025 min)   1.0 %
SCF iterations                  ...      113.454 sec (=   1.891 min)  76.2 %
CIS module                      ...       34.046 sec (=   0.567 min)  22.9 %
                             ****ORCA TERMINATED NORMALLY****
TOTAL RUN TIME: 0 days 0 hours 2 minutes 29 seconds 229 msec
