
                                 *****************
                                 * O   R   C   A *
                                 *****************

           --- An Ab Initio, DFT and Semiempirical electronic structure package ---

                  #######################################################
                  #                        -***-                        #
                  #  Department of molecular theory and spectroscopy    #
                  #              Directorship: Frank Neese              #
                  # Max Planck Institute for Chemical Energy Conversion #
                  #                  D-45470 Muelheim/Ruhr              #
                  #                       Germany                       #
                  #                                                     #
                  #                  All rights reserved                #
                  #                        -***-                        #
                  #######################################################


                         Program Version 4.0.1.2 - RELEASE -


 With contributions from (in alphabetic order):
   Daniel Aravena         : Magnetic Properties
   Michael Atanasov       : Ab Initio Ligand Field Theory
   Ute Becker             : Parallelization
   Martin Brehm           : Molecular dynamics
   Dmytro Bykov           : SCF Hessian
   Vijay G. Chilkuri      : MRCI spin determinant printing
   Dipayan Datta          : RHF DLPNO-CCSD density
   Achintya Kumar Dutta   : EOM-CC, STEOM-CC
   Dmitry Ganyushin       : Spin-Orbit,Spin-Spin,Magnetic field MRCI
   Yang Guo               : DLPNO-NEVPT2, CIM, IAO-localization
   Andreas Hansen         : Spin unrestricted coupled pair/coupled cluster methods
   Lee Huntington         : MR-EOM, pCC
   Robert Izsak           : Overlap fitted RIJCOSX, COSX-SCS-MP3, EOM
   Christian Kollmar      : KDIIS, OOCD, Brueckner-CCSD(T), CCSD density
   Simone Kossmann        : Meta GGA functionals, TD-DFT gradient, OOMP2, MP2 Hessian
   Martin Krupicka        : AUTO-CI
   Dagmar Lenk            : GEPOL surface
   Dimitrios Liakos       : Extrapolation schemes; parallel MDCI
   Dimitrios Manganas     : ROCIS; embedding schemes
   Dimitrios Pantazis     : SARC Basis sets
   Taras Petrenko         : DFT Hessian,TD-DFT gradient, ASA, ECA, R-Raman, ABS, FL, XAS/XES, NRVS
   Peter Pinski           : DLPNO-MP2
   Christoph Reimann      : Effective Core Potentials
   Marius Retegan         : Local ZFS, SOC
   Christoph Riplinger    : Optimizer, TS searches, QM/MM, DLPNO-CCSD(T), (RO)-DLPNO pert. Triples
   Tobias Risthaus        : Range-separated hybrids, TD-DFT gradient, RPA, STAB
   Michael Roemelt        : Restricted open shell CIS
   Masaaki Saitow         : Open-shell DLPNO
   Barbara Sandhoefer     : DKH picture change effects
   Kantharuban Sivalingam : CASSCF convergence, NEVPT2, FIC-MRCI
   Georgi Stoychev        : AutoAux
   Boris Wezisla          : Elementary symmetry handling
   Frank Wennmohs         : Technical directorship


 We gratefully acknowledge several colleagues who have allowed us to
 interface, adapt or use parts of their codes:
   Stefan Grimme, W. Hujo, H. Kruse,             : VdW corrections, initial TS optimization,
                  C. Bannwarth                     DFT functionals, gCP, sTDA/sTD-DF
   Ed Valeev                                     : LibInt (2-el integral package), F12 methods
   Garnet Chan, S. Sharma, J. Yang, R. Olivares  : DMRG
   Ulf Ekstrom                                   : XCFun DFT Library
   Mihaly Kallay                                 : mrcc  (arbitrary order and MRCC methods)
   Andreas Klamt, Michael Diedenhofen            : otool_cosmo (COSMO solvation model)
   Jiri Pittner, Ondrej Demel                    : Mk-CCSD
   Frank Weinhold                                : gennbo (NPA and NBO analysis)
   Christopher J. Cramer and Donald G. Truhlar   : smd solvation model


 Your calculation uses the libint2 library for the computation of 2-el integrals
 For citations please refer to: http://libint.valeyev.net

 This ORCA versions uses:
   CBLAS   interface :  Fast vector & matrix operations
   LAPACKE interface :  Fast linear algebra routines
   SCALAPACK package :  Parallel linear algebra routines


Your calculation utilizes the atom-pairwise dispersion correction
with the zero-damping scheme (D30)
Cite in your paper:
S.Grimme, J.Antony, S.Ehrlich and H.Krieg, J.Chem.Phys., 132, (2010), 154104 
   

XCFun DFT library Copyright 2009-2010 Ulf Ekstrom and contributors.
See http://admol.org/xcfun for more information. This is free soft-
ware; see the source code for copying conditions. There is ABSOLUTELY
NO WARRANTY; not even for MERCHANTABILITY or FITNESS FOR A PARTICULAR
PURPOSE. For details see the documentation. Scientific users of this 
library should cite U. Ekstrom, L. Visscher, R. Bast, A. J. Thorvald-
sen and K. Ruud; J.Chem.Theor.Comp. 2010, DOI: 10.1021/ct100117s
XCFun Version 0.99 
Your calculation utilizes the basis: def2-SVP
   F. Weigend and R. Ahlrichs, Phys. Chem. Chem. Phys. 7, 3297 (2005).

Your calculation utilizes the auxiliary basis: def2/JK
   H-Ba, Hf-Rn: F. Weigend, J. Comput. Chem. 29, 167 (2008).

WARNING: Overwriting auxiliary coulomb basis with /JK basis!
================================================================================
                                        WARNINGS
                       Please study these warnings very carefully!
================================================================================

Warning: TCutStore was < 0. Adjusted to Thresh (uncritical)
INFO   : Checking CIS options ...

WARNING: CIS/ROCIS methods need fully converged wavefunctions
  ===> : Setting SCFConvForced true
         You can overwrite this default with %scf ConvForced false 


INFO   : the flag for use of LIBINT has been found!

================================================================================
                                       INPUT FILE
================================================================================
NAME = /scratch/ch1tk/orca.15405/wB97XD3_def2-SVP_toluene_S0_TDA6S_2-20.inp
|  1> ! UKS wB97X-D3 def2-SVP RIJCOSX def2/JK SlowConv
|  2>  
|  3> 
|  4> %scf
|  5> 	MaxIter		500
|  6> 	STABPerform	True
|  7> end
|  8> 
|  9> %tddft
| 10> 	NRoots 6
| 11> end
| 12> 
| 13> * xyz 0 1
| 14>  C                 -1.18578599   -1.17301779    0.00000000
| 15>  C                 -1.22528521    0.21672485    0.00000000
| 16>  C                 -0.03021307    0.94488843    0.00000000
| 17>  C                  1.19387265    0.26897053    0.00000000
| 18>  C                  1.21998389   -1.12396818    0.00000000
| 19>  C                  0.03366349   -1.85245673    0.00000000
| 20>  H                 -2.12142076   -1.73821028    0.00000000
| 21>  H                 -2.17044776    0.76362561    0.00000000
| 22>  H                  2.12866956    0.83920121    0.00000000
| 23>  H                  2.18175171   -1.64285600    0.00000000
| 24>  H                  0.05704252   -2.94432740    0.00000000
| 25>  O                 -0.11105943    2.29589847    0.00000000
| 26>  H                  1.91706149    3.14838045    0.00000000
| 27> end
| 28> 
| 29>                          ****END OF INPUT****
================================================================================

                       ****************************
                       * Single Point Calculation *
                       ****************************

---------------------------------
CARTESIAN COORDINATES (ANGSTROEM)
---------------------------------
  C     -1.185786   -1.173018    0.000000
  C     -1.225285    0.216725    0.000000
  C     -0.030213    0.944888    0.000000
  C      1.193873    0.268971    0.000000
  C      1.219984   -1.123968    0.000000
  C      0.033663   -1.852457    0.000000
  H     -2.121421   -1.738210    0.000000
  H     -2.170448    0.763626    0.000000
  H      2.128670    0.839201    0.000000
  H      2.181752   -1.642856    0.000000
  H      0.057043   -2.944327    0.000000
  O     -0.111059    2.295898    0.000000
  H      1.917061    3.148380    0.000000

----------------------------
CARTESIAN COORDINATES (A.U.)
----------------------------
  NO LB      ZA    FRAG     MASS         X           Y           Z
   0 C     6.0000    0    12.011   -2.240811   -2.216682    0.000000
   1 C     6.0000    0    12.011   -2.315453    0.409551    0.000000
   2 C     6.0000    0    12.011   -0.057094    1.785580    0.000000
   3 C     6.0000    0    12.011    2.256092    0.508281    0.000000
   4 C     6.0000    0    12.011    2.305435   -2.123992    0.000000
   5 C     6.0000    0    12.011    0.063615   -3.500636    0.000000
   6 H     1.0000    0     1.008   -4.008904   -3.284741    0.000000
   7 H     1.0000    0     1.008   -4.101552    1.443043    0.000000
   8 H     1.0000    0     1.008    4.022602    1.585860    0.000000
   9 H     1.0000    0     1.008    4.122913   -3.104548    0.000000
  10 H     1.0000    0     1.008    0.107795   -5.563972    0.000000
  11 O     8.0000    0    15.999   -0.209872    4.338619    0.000000
  12 H     1.0000    0     1.008    3.622721    5.949577    0.000000

--------------------------------
INTERNAL COORDINATES (ANGSTROEM)
--------------------------------
 C      0   0   0     0.000000000000     0.00000000     0.00000000
 C      1   0   0     1.390303849457     0.00000000     0.00000000
 C      2   1   0     1.399435464408   119.72614521     0.00000000
 C      3   2   1     1.398302848974   119.73915203     0.00000000
 C      4   3   2     1.393183421761   119.98059071     0.00000000
 C      5   4   3     1.392139238344   120.47909682     0.00000000
 H      1   2   3     1.093094219903   119.50705551   180.00000085
 H      2   1   3     1.091985662548   121.68304388   180.00000000
 H      4   3   2     1.094992370457   119.70992277   180.00000000
 H      5   4   3     1.092813757843   119.42141969   180.00000000
 H      6   5   4     1.092120936092   120.32638097   180.00000085
 O      3   2   1     1.353426858794   117.92958877   180.00000000
 H     12   3   2     2.199999998265   109.37394528   180.00000000

---------------------------
INTERNAL COORDINATES (A.U.)
---------------------------
 C      0   0   0     0.000000000000     0.00000000     0.00000000
 C      1   0   0     2.627293518410     0.00000000     0.00000000
 C      2   1   0     2.644549769828   119.72614521     0.00000000
 C      3   2   1     2.642409436842   119.73915203     0.00000000
 C      4   3   2     2.632735121448   119.98059071     0.00000000
 C      5   4   3     2.630761900756   120.47909682     0.00000000
 H      1   2   3     2.065648714189   119.50705551   180.00000085
 H      2   1   3     2.063553844385   121.68304388   180.00000000
 H      4   3   2     2.069235698897   119.70992277   180.00000000
 H      5   4   3     2.065118717705   119.42141969   180.00000000
 H      6   5   4     2.063809474335   120.32638097   180.00000085
 O      3   2   1     2.557606105415   117.92958877   180.00000000
 H     12   3   2     4.157397491348   109.37394528   180.00000000

---------------------
BASIS SET INFORMATION
---------------------
There are 3 groups of distinct atoms

 Group   1 Type C   : 7s4p1d contracted to 3s2p1d pattern {511/31/1}
 Group   2 Type H   : 4s1p contracted to 2s1p pattern {31/1}
 Group   3 Type O   : 7s4p1d contracted to 3s2p1d pattern {511/31/1}

Atom   0C    basis set group =>   1
Atom   1C    basis set group =>   1
Atom   2C    basis set group =>   1
Atom   3C    basis set group =>   1
Atom   4C    basis set group =>   1
Atom   5C    basis set group =>   1
Atom   6H    basis set group =>   2
Atom   7H    basis set group =>   2
Atom   8H    basis set group =>   2
Atom   9H    basis set group =>   2
Atom  10H    basis set group =>   2
Atom  11O    basis set group =>   3
Atom  12H    basis set group =>   2
-------------------------------
AUXILIARY BASIS SET INFORMATION
-------------------------------
There are 3 groups of distinct atoms

 Group   1 Type C   : 14s10p6d2f1g contracted to 10s8p5d1f1g pattern {5111111111/31111111/21111/2/1}
 Group   2 Type H   : 4s2p2d contracted to 2s2p2d pattern {31/11/11}
 Group   3 Type O   : 14s10p6d2f1g contracted to 10s8p4d2f1g pattern {5111111111/31111111/3111/11/1}

Atom   0C    basis set group =>   1
Atom   1C    basis set group =>   1
Atom   2C    basis set group =>   1
Atom   3C    basis set group =>   1
Atom   4C    basis set group =>   1
Atom   5C    basis set group =>   1
Atom   6H    basis set group =>   2
Atom   7H    basis set group =>   2
Atom   8H    basis set group =>   2
Atom   9H    basis set group =>   2
Atom  10H    basis set group =>   2
Atom  11O    basis set group =>   3
Atom  12H    basis set group =>   2
------------------------------------------------------------------------------
                           ORCA GTO INTEGRAL CALCULATION
                           -- RI-GTO INTEGRALS CHOSEN --
------------------------------------------------------------------------------

                         BASIS SET STATISTICS AND STARTUP INFO

Gaussian basis set:
 # of primitive gaussian shells          ...  114
 # of primitive gaussian functions       ...  210
 # of contracted shells                  ...   60
 # of contracted basis functions         ...  128
 Highest angular momentum                ...    2
 Maximum contraction depth               ...    5
Auxiliary gaussian basis set:
 # of primitive gaussian shells          ...  279
 # of primitive gaussian functions       ...  799
 # of contracted shells                  ...  211
 # of contracted aux-basis functions     ...  635
 Highest angular momentum                ...    4
 Maximum contraction depth               ...    5
Ratio of auxiliary to basis functions    ...  4.96
Integral package used                  ... LIBINT
 One Electron integrals                  ... done
 Ordering auxiliary basis shells         ... done
 Integral threshhold             Thresh  ...  1.000e-10
 Primitive cut-off               TCut    ...  1.000e-11
 Pre-screening matrix                    ... done
 Shell pair data                         ... 
 Ordering of the shell pairs             ... done (   0.000 sec) 1758 of 1830 pairs
 Determination of significant pairs      ... done (   0.000 sec)
 Creation of shell pair data             ... done (   0.001 sec)
 Storage of shell pair data              ... done (   0.001 sec)
 Shell pair data done in (   0.002 sec)
 Computing two index integrals           ... done
 Cholesky decomposition of the V-matrix  ... done


Timings:
 Total evaluation time                   ...   0.222 sec (  0.004 min)
 One electron matrix time                ...   0.016 sec (  0.000 min) =  7.1%
 Schwartz matrix evaluation time         ...   0.152 sec (  0.003 min) = 68.7%
 Two index repulsion integral time       ...   0.015 sec (  0.000 min) =  6.7%
 Cholesky decomposition of V             ...   0.014 sec (  0.000 min) =  6.3%
 Three index repulsion integral time     ...   0.000 sec (  0.000 min) =  0.0%

-------------------------------------------------------------------------------
                                 ORCA SCF
-------------------------------------------------------------------------------

------------
SCF SETTINGS
------------
Hamiltonian:
 Density Functional     Method          .... DFT(GTOs)
 Exchange Functional    Exchange        .... WB97X-D3
 Correlation Functional Correlation     .... WB97X-D3
 Gradients option       PostSCFGGA      .... off
 Hybrid DFT is turned on
   Fraction HF Exchange ScalHFX         ....  0.195728
   Scaling of DF-GGA-X  ScalDFX         ....  0.000000
   Scaling of DF-GGA-C  ScalDFC         ....  1.000000
   Scaling of DF-LDA-C  ScalLDAC        ....  1.000000
   Perturbative correction              ....  0.000000
 Long-range corrected/Screened/Range-Separated Hybrid DFT is turned on
   Amount of maximum screened exact exchange              ....  0.804272
   Range separation parameter mu (erf(mu*r12)/r12)        ....  0.250000
 RI-approximation to the Coulomb term is turned on
   Number of auxiliary basis functions  .... 635
   RIJ-COSX (HFX calculated with COS-X)).... on


General Settings:
 Integral files         IntName         .... /scratch/ch1tk/orca.15405/wB97XD3_def2-SVP_toluene_S0_TDA6S_2-20
 Hartree-Fock type      HFTyp           .... UHF
 Total Charge           Charge          ....    0
 Multiplicity           Mult            ....    1
 Number of Electrons    NEL             ....   50
 Basis Dimension        Dim             ....  128
 Nuclear Repulsion      ENuc            ....    267.3079518642 Eh

Convergence Acceleration:
 DIIS                   CNVDIIS         .... on
   Start iteration      DIISMaxIt       ....     0
   Startup error        DIISStart       ....  0.200000
   # of expansion vecs  DIISMaxEq       ....     5
   Bias factor          DIISBfac        ....   1.050
   Max. coefficient     DIISMaxC        ....  10.000
 Newton-Raphson         CNVNR           .... off
 SOSCF                  CNVSOSCF        .... off
 Level Shifting         CNVShift        .... on
   Level shift para.    LevelShift      ....    0.2500
   Turn off err/grad.   ShiftErr        ....    0.0000
 Zerner damping         CNVZerner       .... off
 Static damping         CNVDamp         .... on
   Fraction old density DampFac         ....    0.8500
   Max. Damping (<1)    DampMax         ....    0.9800
   Min. Damping (>=0)   DampMin         ....    0.0000
   Turn off err/grad.   DampErr         ....    0.0300
 Fernandez-Rico         CNVRico         .... off

SCF Procedure:
 Maximum # iterations   MaxIter         ....   500
 SCF integral mode      SCFMode         .... Direct
   Integral package                     .... LIBINT
 Reset frequeny         DirectResetFreq ....    20
 Integral Threshold     Thresh          ....  1.000e-10 Eh
 Primitive CutOff       TCut            ....  1.000e-11 Eh

Convergence Tolerance:
 Convergence Check Mode ConvCheckMode   .... Total+1el-Energy
 Convergence forced     ConvForced      .... 1
 Energy Change          TolE            ....  1.000e-06 Eh
 1-El. energy change                    ....  1.000e-03 Eh
 DIIS Error             TolErr          ....  1.000e-06


Diagonalization of the overlap matrix:
Smallest eigenvalue                        ... 2.788e-04
Time for diagonalization                   ...    0.004 sec
Threshold for overlap eigenvalues          ... 1.000e-08
Number of eigenvalues below threshold      ... 0
Time for construction of square roots      ...    0.001 sec
Total time needed                          ...    0.005 sec

-------------------
DFT GRID GENERATION
-------------------

General Integration Accuracy     IntAcc      ...  4.340
Radial Grid Type                 RadialGrid  ... Gauss-Chebyshev
Angular Grid (max. acc.)         AngularGrid ... Lebedev-110
Angular grid pruning method      GridPruning ... 3 (G Style)
Weight generation scheme         WeightScheme... Becke
Basis function cutoff            BFCut       ...    1.0000e-10
Integration weight cutoff        WCut        ...    1.0000e-14
Grids for H and He will be reduced by one unit

# of grid points (after initial pruning)     ...  16416 (   0.0 sec)
# of grid points (after weights+screening)   ...  15352 (   0.0 sec)
nearest neighbour list constructed           ...    0.0 sec
Grid point re-assignment to atoms done       ...    0.0 sec
Grid point division into batches done        ...    0.0 sec
Reduced shell lists constructed in    0.3 sec

Total number of grid points                  ...    15352
Total number of batches                      ...      246
Average number of points per batch           ...       62
Average number of grid points per atom       ...     1181
Average number of shells per batch           ...    44.02 (73.37%)
Average number of basis functions per batch  ...    93.75 (73.24%)
Average number of large shells per batch     ...    35.31 (80.22%)
Average number of large basis fcns per batch ...    74.14 (79.08%)
Maximum spatial batch extension              ...  20.15, 16.74, 25.60 au
Average spatial batch extension              ...   4.03,  3.54,  5.53 au

Time for grid setup =    0.310 sec

------------------------------
INITIAL GUESS: MODEL POTENTIAL
------------------------------
Loading Hartree-Fock densities                     ... done
Calculating cut-offs                               ... done
Setting up the integral package                    ... done
Initializing the effective Hamiltonian             ... done
Starting the Coulomb interaction                   ... done (   0.1 sec)
Reading the grid                                   ... done
Mapping shells                                     ... done
Starting the XC term evaluation                    ... done (   0.3 sec)
  promolecular density results
     # of electrons  =     49.999621730
     EX              =    -40.498559820
     EC              =     -1.633096566
     EX+EC           =    -42.131656386
Transforming the Hamiltonian                       ... done (   0.0 sec)
Diagonalizing the Hamiltonian                      ... done (   0.0 sec)
Back transforming the eigenvectors                 ... done (   0.0 sec)
Now organizing SCF variables                       ... done
                      ------------------
                      INITIAL GUESS DONE (   0.8 sec)
                      ------------------
--------------------
COSX GRID GENERATION
--------------------

General Integration Accuracy     IntAcc      ...  3.340
Radial Grid Type                 RadialGrid  ... Gauss-Chebyshev
Angular Grid (max. acc.)         AngularGrid ... Lebedev-50
Angular grid pruning method      GridPruning ... 3 (G Style)
Weight generation scheme         WeightScheme... Becke
Basis function cutoff            BFCut       ...    1.0000e-10
Integration weight cutoff        WCut        ...    1.0000e-14
Grids for H and He will be reduced by one unit

# of grid points (after initial pruning)     ...   5980 (   0.0 sec)
# of grid points (after weights+screening)   ...   5660 (   0.0 sec)
nearest neighbour list constructed           ...    0.0 sec
Grid point re-assignment to atoms done       ...    0.0 sec
Grid point division into batches done        ...    0.0 sec
Reduced shell lists constructed in    0.1 sec

Total number of grid points                  ...     5660
Total number of batches                      ...       95
Average number of points per batch           ...       59
Average number of grid points per atom       ...      435
Average number of shells per batch           ...    46.85 (78.09%)
Average number of basis functions per batch  ...   100.40 (78.43%)
Average number of large shells per batch     ...    38.67 (82.53%)
Average number of large basis fcns per batch ...    82.40 (82.07%)
Maximum spatial batch extension              ...  16.61, 14.62, 25.32 au
Average spatial batch extension              ...   4.91,  4.67,  7.46 au

Overlap Fitting                  UseSFitting ... on
Constructing numerical overlap ... done (      0.1 sec)
Inverting numerical overlap    ... done (      0.0 sec)
Obtaining analytic overlap     ... done (      0.0 sec)
Final contraction and storage  ... done (      0.0 sec)


General Integration Accuracy     IntAcc      ...  3.670
Radial Grid Type                 RadialGrid  ... Gauss-Chebyshev
Angular Grid (max. acc.)         AngularGrid ... Lebedev-50
Angular grid pruning method      GridPruning ... 3 (G Style)
Weight generation scheme         WeightScheme... Becke
Basis function cutoff            BFCut       ...    1.0000e-10
Integration weight cutoff        WCut        ...    1.0000e-14
Grids for H and He will be reduced by one unit

# of grid points (after initial pruning)     ...   7582 (   0.0 sec)
# of grid points (after weights+screening)   ...   7154 (   0.0 sec)
nearest neighbour list constructed           ...    0.0 sec
Grid point re-assignment to atoms done       ...    0.0 sec
Grid point division into batches done        ...    0.0 sec
Reduced shell lists constructed in    0.1 sec

Total number of grid points                  ...     7154
Total number of batches                      ...      117
Average number of points per batch           ...       61
Average number of grid points per atom       ...      550
Average number of shells per batch           ...    46.19 (76.99%)
Average number of basis functions per batch  ...    98.69 (77.10%)
Average number of large shells per batch     ...    37.47 (81.10%)
Average number of large basis fcns per batch ...    78.86 (79.91%)
Maximum spatial batch extension              ...  17.81, 15.26, 27.71 au
Average spatial batch extension              ...   4.58,  4.34,  7.07 au

Overlap Fitting                  UseSFitting ... on
Constructing numerical overlap ... done (      0.1 sec)
Inverting numerical overlap    ... done (      0.0 sec)
Obtaining analytic overlap     ... done (      0.0 sec)
Final contraction and storage  ... done (      0.0 sec)


General Integration Accuracy     IntAcc      ...  4.010
Radial Grid Type                 RadialGrid  ... Gauss-Chebyshev
Angular Grid (max. acc.)         AngularGrid ... Lebedev-110
Angular grid pruning method      GridPruning ... 3 (G Style)
Weight generation scheme         WeightScheme... Becke
Basis function cutoff            BFCut       ...    1.0000e-10
Integration weight cutoff        WCut        ...    1.0000e-14
Grids for H and He will be reduced by one unit

# of grid points (after initial pruning)     ...  14238 (   0.0 sec)
# of grid points (after weights+screening)   ...  13336 (   0.0 sec)
nearest neighbour list constructed           ...    0.0 sec
Grid point re-assignment to atoms done       ...    0.0 sec
Grid point division into batches done        ...    0.0 sec
Reduced shell lists constructed in    0.2 sec

Total number of grid points                  ...    13336
Total number of batches                      ...      213
Average number of points per batch           ...       62
Average number of grid points per atom       ...     1026
Average number of shells per batch           ...    44.56 (74.26%)
Average number of basis functions per batch  ...    94.73 (74.01%)
Average number of large shells per batch     ...    35.87 (80.50%)
Average number of large basis fcns per batch ...    75.32 (79.50%)
Maximum spatial batch extension              ...  21.45, 15.92, 41.97 au
Average spatial batch extension              ...   4.20,  3.56,  5.66 au

Overlap Fitting                  UseSFitting ... on
Constructing numerical overlap ... done (      0.1 sec)
Inverting numerical overlap    ... done (      0.0 sec)
Obtaining analytic overlap     ... done (      0.0 sec)
Final contraction and storage  ... done (      0.0 sec)

Time for X-Grid setup             =    0.833 sec
--------------
SCF ITERATIONS
--------------
ITER       Energy         Delta-E        Max-DP      RMS-DP      [F,P]     Damp
               ***  Starting incremental Fock matrix formation  ***
  0   -306.6152820997   0.000000000000 0.03688946  0.00088054  0.2958009 0.8500
  1   -306.6953225047  -0.080040405019 0.03878680  0.00087343  0.2053514 0.8500
                               ***Turning on DIIS***
  2   -306.7523864459  -0.057063941179 0.03174778  0.00071182  0.1384902 0.8500
  3   -306.7872537886  -0.034867342698 0.01656750  0.00048619  0.0819163 0.8500
  4   -306.8124729831  -0.025219194499 0.00838170  0.00035606  0.0595131 0.8500
  5   -306.8323615075  -0.019888524405 0.00650905  0.00027617  0.0525596 0.8500
  6   -306.8488275431  -0.016466035557 0.00551814  0.00022540  0.0488944 0.8500
  7   -306.8627788553  -0.013951312243 0.00520323  0.00019174  0.0449518 0.8500
  8   -306.8747669069  -0.011988051585 0.00483224  0.00016675  0.0385592 0.8500
  9   -306.8849900249  -0.010223117982 0.00379419  0.00014372  0.0319155 0.8500
 10   -306.8936633683  -0.008673343461 0.02035398  0.00082006  0.0272727 0.0000
 11   -306.9432214040  -0.049558035675 0.00237811  0.00004701  0.0042967 0.0000
 12   -306.9432382193  -0.000016815276 0.00110659  0.00002260  0.0039312 0.0000
               *** Restarting incremental Fock matrix formation ***
                                   *** Resetting DIIS ***
 13   -306.9432591539  -0.000020934614 0.00034777  0.00001222  0.0006101 0.0000
 14   -306.9432626373  -0.000003483383 0.00028737  0.00000732  0.0005906 0.0000
 15   -306.9432640733  -0.000001436036 0.00023840  0.00000713  0.0003330 0.0000
 16   -306.9432650353  -0.000000962009 0.00010152  0.00000373  0.0001483 0.0000
                 **** Energy Check signals convergence ****

               *****************************************************
               *                     SUCCESS                       *
               *           SCF CONVERGED AFTER  17 CYCLES          *
               *****************************************************


------------------------------------------------------------------------------
                          SCF STABILITY ANALYSIS                              
------------------------------------------------------------------------------


---------------
TD-DFT XC SETUP
---------------

DFT calculation                         ... on
Name of the grid file                   ... /scratch/ch1tk/orca.15405/wB97XD3_def2-SVP_toluene_S0_TDA6S_2-20.grid.tmp
Exchange functional (SCF)               ... WB97X-D3
Exchange functional (TD-DFT)            ... WB97X-D3
Correlation functional (SCF)            ... WB97X-D3
Correlation functional (TD-DFT)         ... WB97X-D3
Hybrid DFT                              ... on
   Exchange mixing (SCF)                ...  0.196
   Exchange mixing (TD-DFT)             ...  0.196
   GGA exch. scaling(SCF)               ...  0.000
   GGA exch. scaling (TD-DFT)           ...  0.000
   GGA corr. scaling (SCF)              ...  1.000
   GGA corr. scaling (TD-DFT)           ...  1.000
Range-Separated Exchange                ... on
   Range Range separation parameter mu  .... 0.250
   Max. amount of RS exchange (SCF)     ...  0.804
   Max. amount of RS exchange (TD-DFT)  ...  0.804

Electron density on the grid   ... found on disk
Building xc-kernel on the grid ... done
                    *** TD-DFT CALCULATION INITIALIZED ***

                       ****Iteration    0****

   Memory handling for direct AO based CIS:
   Memory per vector needed      ...     1 MB
   Memory needed                 ...     7 MB
   Memory available              ...  1024 MB
   Number of vectors per batch   ...   783
   Number of batches             ...     1
   Time for densities:     0.007
   Time for XC-Integration:     1.455
   Time for K (COSX):    10.190
   Time for RI-J (Direct):     1.537
   Time for Sigma-Completion:     0.028
   Lowest Energy          :    -0.081515826050
   Maximum Energy change  :     0.081515826050 (vector 0)
   Maximum residual norm  :     0.021291915838

                       ****Iteration    1****
   Time for densities:     0.003
   Time for XC-Integration:     0.814
   Time for K (COSX):     9.840
   Time for RI-J (Direct):     0.810
   Time for Sigma-Completion:     0.014
   Lowest Energy          :    -0.123871092955
   Maximum Energy change  :     0.042355266905 (vector 0)
   Maximum residual norm  :     0.001168989189

                       ****Iteration    2****
   Time for densities:     0.003
   Time for XC-Integration:     0.841
   Time for K (COSX):     9.948
   Time for RI-J (Direct):     0.827
   Time for Sigma-Completion:     0.014
   Lowest Energy          :    -0.124895692517
   Maximum Energy change  :     0.002246081304 (vector 1)
   Maximum residual norm  :     0.000098033286

      *** CONVERGENCE OF RESIDUAL NORM REACHED ***

----------------------------- 
SCF STABILITY ANALYSIS RESULT 
----------------------------- 

UHF/UKS->UHF/UKS - singlet - internal

   Root    Eigenvalue (au) 
     0      -0.124896 
     1      -0.031801 
     2       0.002169 

Stability Analysis indicates an UNSTABLE HF/KS wave function with SEVERAL negative eigenvalues.

Since this is UHF/UKS, we will restart the SCF using a new guess based on the eigenvector 
associated with the lowest eigenvalue. Because there is no guarantee that the restart     
will result in a stable solution, the user should check the stability of the resulting    
wave function in a separate calculation using the MOREAD guess feature.

Obtain new guess               ... done 

Total time for performing the stability analysis:    36.370sec

--------------------------
SCF ITERATIONS (restarted)
--------------------------
ITER       Energy         Delta-E        Max-DP      RMS-DP      [F,P]     Damp
               ***  Starting incremental Fock matrix formation  ***
  0   -306.9623047531   0.000000000000 0.00258567  0.00004666  0.0099510 0.8500
  1   -306.9628311692  -0.000526416060 0.00317910  0.00006152  0.0083527 0.8500
                               ***Turning on DIIS***
  2   -306.9634708761  -0.000639706976 0.02173942  0.00043767  0.0069027 0.0000
  3   -306.9701878453  -0.006716969190 0.01470158  0.00025477  0.0025065 0.0000
  4   -306.9736929086  -0.003505063264 0.01459002  0.00026992  0.0037114 0.0000
  5   -306.9769025689  -0.003209660329 0.01420881  0.00028335  0.0024463 0.0000
  6   -306.9794772881  -0.002574719224 0.01238743  0.00026004  0.0016246 0.0000
  7   -306.9808987497  -0.001421461504 0.00436266  0.00007578  0.0021402 0.0000
  8   -306.9811298805  -0.000231130839 0.00424394  0.00007860  0.0015095 0.0000
  9   -306.9812828277  -0.000152947218 0.00353427  0.00006532  0.0015571 0.0000
 10   -306.9813465245  -0.000063696786 0.00114198  0.00002395  0.0009932 0.0000
 11   -306.9813577387  -0.000011214187 0.00095994  0.00001870  0.0004108 0.0000
 12   -306.9813620820  -0.000004343320 0.00028795  0.00000654  0.0003087 0.0000
                 **** Energy Check signals convergence ****

               *****************************************************
               *                     SUCCESS                       *
               *           SCF CONVERGED AFTER  13 CYCLES          *
               *****************************************************

Setting up the final grid:

General Integration Accuracy     IntAcc      ...  4.670
Radial Grid Type                 RadialGrid  ... Gauss-Chebyshev
Angular Grid (max. acc.)         AngularGrid ... Lebedev-302
Angular grid pruning method      GridPruning ... 3 (G Style)
Weight generation scheme         WeightScheme... Becke
Basis function cutoff            BFCut       ...    1.0000e-10
Integration weight cutoff        WCut        ...    1.0000e-14
Grids for H and He will be reduced by one unit

# of grid points (after initial pruning)     ...  63848 (   0.0 sec)
# of grid points (after weights+screening)   ...  59134 (   0.1 sec)
nearest neighbour list constructed           ...    0.0 sec
Grid point re-assignment to atoms done       ...    0.0 sec
Grid point division into batches done        ...    0.2 sec
Reduced shell lists constructed in    1.0 sec

Total number of grid points                  ...    59134
Total number of batches                      ...      931
Average number of points per batch           ...       63
Average number of grid points per atom       ...     4549
Average number of shells per batch           ...    39.98 (66.63%)
Average number of basis functions per batch  ...    84.58 (66.08%)
Average number of large shells per batch     ...    31.44 (78.63%)
Average number of large basis fcns per batch ...    65.41 (77.33%)
Maximum spatial batch extension              ...  15.58, 16.67, 24.37 au
Average spatial batch extension              ...   2.60,  2.47,  3.07 au

Final grid set up in    1.1 sec
Final integration                            ... done (   1.4 sec)
Change in XC energy                          ...     0.000914303
Integrated number of electrons               ...    50.000006921
Previous integrated no of electrons          ...    49.997872318
Old exchange energy                            =    -13.423710607 Eh
New exchange energy                            =    -13.423992241 Eh
Exchange energy change after final integration =     -0.000281634 Eh
Total energy after final integration           =   -306.980730263 Eh
Final COS-X integration done in                =     8.270 sec

----------------
TOTAL SCF ENERGY
----------------

Total Energy       :         -306.98073026 Eh           -8353.37035 eV

Components:
Nuclear Repulsion  :          267.30795186 Eh            7273.81916 eV
Electronic Energy  :         -574.28868213 Eh          -15627.18951 eV
One Electron Energy:         -944.10225820 Eh          -25690.32852 eV
Two Electron Energy:          369.81357607 Eh           10063.13900 eV

Virial components:
Potential Energy   :         -610.79635830 Eh          -16620.61388 eV
Kinetic Energy     :          303.81562803 Eh            8267.24354 eV
Virial Ratio       :            2.01041784


DFT components:
N(Alpha)           :       24.999968336702 electrons
N(Beta)            :       25.000038583939 electrons
N(Total)           :       50.000006920641 electrons
E(XC)              :      -29.666557530665 Eh       

---------------
SCF CONVERGENCE
---------------

  Last Energy change         ...   -8.5053e-07  Tolerance :   1.0000e-06
  Last MAX-Density change    ...    0.0000e+00  Tolerance :   1.0000e-05
  Last RMS-Density change    ...    0.0000e+00  Tolerance :   1.0000e-06
  Last DIIS Error            ...    1.5566e-04  Tolerance :   1.0000e-06

             **** THE GBW FILE WAS UPDATED (/scratch/ch1tk/orca.15405/wB97XD3_def2-SVP_toluene_S0_TDA6S_2-20.gbw) ****
             **** DENSITY FILE WAS UPDATED (/scratch/ch1tk/orca.15405/wB97XD3_def2-SVP_toluene_S0_TDA6S_2-20.scfp.tmp) ****
             **** ENERGY FILE WAS UPDATED (/scratch/ch1tk/orca.15405/wB97XD3_def2-SVP_toluene_S0_TDA6S_2-20.en.tmp) ****

     --------------------------------------------------------------------
                                      WARNING
     A stability analysis of the first UHF/UKS SCF solution was performed
     and an instability detected. The result was used as a guess for
     a second SCF, which has converged. There is no guarantee that the
     current solution is stable - it is up to you to rerun the stability
     analysis using the now stored solution as a guess and verify.
     --------------------------------------------------------------------

----------------------
UHF SPIN CONTAMINATION
----------------------

Warning: in a DFT calculation there is little theoretical justification to 
         calculate <S**2> as in Hartree-Fock theory. We will do it anyways
         but you should keep in mind that the values have only limited relevance

Expectation value of <S**2>     :     0.848749
Ideal value S*(S+1) for S=0.0   :     0.000000
Deviation                       :     0.848749

----------------
ORBITAL ENERGIES
----------------
                 SPIN UP ORBITALS
  NO   OCC          E(Eh)            E(eV) 
   0   1.0000     -19.319761      -525.7174 
   1   1.0000     -10.362495      -281.9778 
   2   1.0000     -10.305049      -280.4146 
   3   1.0000     -10.304503      -280.3998 
   4   1.0000     -10.302664      -280.3498 
   5   1.0000     -10.302548      -280.3466 
   6   1.0000     -10.292865      -280.0831 
   7   1.0000      -1.165878       -31.7252 
   8   1.0000      -0.971645       -26.4398 
   9   1.0000      -0.867608       -23.6088 
  10   1.0000      -0.847658       -23.0660 
  11   1.0000      -0.730793       -19.8859 
  12   1.0000      -0.702968       -19.1287 
  13   1.0000      -0.629530       -17.1304 
  14   1.0000      -0.592776       -16.1302 
  15   1.0000      -0.577013       -15.7013 
  16   1.0000      -0.540218       -14.7001 
  17   1.0000      -0.531205       -14.4548 
  18   1.0000      -0.530049       -14.4234 
  19   1.0000      -0.492632       -13.4052 
  20   1.0000      -0.465022       -12.6539 
  21   1.0000      -0.450868       -12.2687 
  22   1.0000      -0.438055       -11.9201 
  23   1.0000      -0.352186        -9.5835 
  24   1.0000      -0.319617        -8.6972 
  25   0.0000      -0.007528        -0.2048 
  26   0.0000       0.059616         1.6222 
  27   0.0000       0.077433         2.1071 
  28   0.0000       0.146215         3.9787 
  29   0.0000       0.186148         5.0654 
  30   0.0000       0.202249         5.5035 
  31   0.0000       0.231942         6.3115 
  32   0.0000       0.242668         6.6033 
  33   0.0000       0.247338         6.7304 
  34   0.0000       0.293748         7.9933 
  35   0.0000       0.353807         9.6276 
  36   0.0000       0.371622        10.1124 
  37   0.0000       0.383039        10.4230 
  38   0.0000       0.409430        11.1411 
  39   0.0000       0.442096        12.0300 
  40   0.0000       0.496817        13.5191 
  41   0.0000       0.497459        13.5365 
  42   0.0000       0.521989        14.2040 
  43   0.0000       0.531687        14.4679 
  44   0.0000       0.557827        15.1792 
  45   0.0000       0.580074        15.7846 
  46   0.0000       0.593877        16.1602 
  47   0.0000       0.626631        17.0515 
  48   0.0000       0.627935        17.0870 
  49   0.0000       0.633959        17.2509 
  50   0.0000       0.667738        18.1701 
  51   0.0000       0.695545        18.9267 
  52   0.0000       0.704537        19.1714 
  53   0.0000       0.728882        19.8339 
  54   0.0000       0.744509        20.2591 
  55   0.0000       0.762971        20.7615 
  56   0.0000       0.780877        21.2487 
  57   0.0000       0.800247        21.7758 
  58   0.0000       0.812887        22.1198 
  59   0.0000       0.815640        22.1947 
  60   0.0000       0.830187        22.5905 
  61   0.0000       0.836624        22.7657 
  62   0.0000       0.865240        23.5444 
  63   0.0000       0.891036        24.2463 
  64   0.0000       0.905397        24.6371 
  65   0.0000       0.955137        25.9906 
  66   0.0000       1.011439        27.5227 
  67   0.0000       1.078029        29.3347 
  68   0.0000       1.106994        30.1228 
  69   0.0000       1.147756        31.2320 
  70   0.0000       1.184956        32.2443 
  71   0.0000       1.272740        34.6330 
  72   0.0000       1.307936        35.5907 
  73   0.0000       1.326437        36.0942 
  74   0.0000       1.331111        36.2214 
  75   0.0000       1.364597        37.1326 
  76   0.0000       1.367663        37.2160 
  77   0.0000       1.391075        37.8531 
  78   0.0000       1.524544        41.4849 
  79   0.0000       1.558502        42.4090 
  80   0.0000       1.561578        42.4927 
  81   0.0000       1.584554        43.1179 
  82   0.0000       1.592551        43.3355 
  83   0.0000       1.748751        47.5859 
  84   0.0000       1.754804        47.7506 
  85   0.0000       1.783751        48.5383 
  86   0.0000       1.796963        48.8979 
  87   0.0000       1.829125        49.7730 
  88   0.0000       1.837858        50.0107 
  89   0.0000       1.839237        50.0482 
  90   0.0000       1.861479        50.6534 
  91   0.0000       1.879929        51.1555 
  92   0.0000       1.888216        51.3810 
  93   0.0000       1.892435        51.4958 
  94   0.0000       1.939333        52.7719 
  95   0.0000       1.989047        54.1247 
  96   0.0000       2.039348        55.4935 
  97   0.0000       2.069027        56.3011 
  98   0.0000       2.075796        56.4853 
  99   0.0000       2.129017        57.9335 
 100   0.0000       2.190717        59.6124 
 101   0.0000       2.226009        60.5728 
 102   0.0000       2.242695        61.0268 
 103   0.0000       2.281859        62.0925 
 104   0.0000       2.305169        62.7268 
 105   0.0000       2.351080        63.9761 
 106   0.0000       2.351660        63.9919 
 107   0.0000       2.398569        65.2684 
 108   0.0000       2.434412        66.2437 
 109   0.0000       2.439036        66.3695 
 110   0.0000       2.596880        70.6647 
 111   0.0000       2.619815        71.2888 
 112   0.0000       2.634926        71.7000 
 113   0.0000       2.660612        72.3989 
 114   0.0000       2.727679        74.2239 
 115   0.0000       2.736094        74.4529 
 116   0.0000       2.772075        75.4320 
 117   0.0000       2.820276        76.7436 
 118   0.0000       2.822073        76.7925 
 119   0.0000       2.943022        80.0837 
 120   0.0000       2.973285        80.9072 
 121   0.0000       3.053074        83.0784 
 122   0.0000       3.091461        84.1229 
 123   0.0000       3.109104        84.6030 
 124   0.0000       3.243304        88.2548 
 125   0.0000       3.429468        93.3206 
 126   0.0000       3.469848        94.4194 
 127   0.0000       3.779103       102.8346 

                 SPIN DOWN ORBITALS
  NO   OCC          E(Eh)            E(eV) 
   0   1.0000     -19.302491      -525.2475 
   1   1.0000     -10.362771      -281.9853 
   2   1.0000     -10.304908      -280.4108 
   3   1.0000     -10.304488      -280.3994 
   4   1.0000     -10.302119      -280.3349 
   5   1.0000     -10.301555      -280.3196 
   6   1.0000     -10.292947      -280.0853 
   7   1.0000      -1.114474       -30.3264 
   8   1.0000      -0.966811       -26.3083 
   9   1.0000      -0.865842       -23.5608 
  10   1.0000      -0.840186       -22.8626 
  11   1.0000      -0.723895       -19.6982 
  12   1.0000      -0.697714       -18.9858 
  13   1.0000      -0.624101       -16.9826 
  14   1.0000      -0.572071       -15.5668 
  15   1.0000      -0.568730       -15.4759 
  16   1.0000      -0.533500       -14.5173 
  17   1.0000      -0.529265       -14.4020 
  18   1.0000      -0.520814       -14.1721 
  19   1.0000      -0.464494       -12.6395 
  20   1.0000      -0.451547       -12.2872 
  21   1.0000      -0.441539       -12.0149 
  22   1.0000      -0.416042       -11.3211 
  23   1.0000      -0.351937        -9.5767 
  24   1.0000      -0.312107        -8.4929 
  25   0.0000      -0.073949        -2.0123 
  26   0.0000       0.060305         1.6410 
  27   0.0000       0.078603         2.1389 
  28   0.0000       0.146424         3.9844 
  29   0.0000       0.185535         5.0487 
  30   0.0000       0.202403         5.5077 
  31   0.0000       0.232551         6.3280 
  32   0.0000       0.240150         6.5348 
  33   0.0000       0.247712         6.7406 
  34   0.0000       0.299320         8.1449 
  35   0.0000       0.352165         9.5829 
  36   0.0000       0.372030        10.1235 
  37   0.0000       0.383917        10.4469 
  38   0.0000       0.413977        11.2649 
  39   0.0000       0.443474        12.0676 
  40   0.0000       0.497269        13.5314 
  41   0.0000       0.498086        13.5536 
  42   0.0000       0.524399        14.2696 
  43   0.0000       0.533574        14.5193 
  44   0.0000       0.558191        15.1891 
  45   0.0000       0.560339        15.2476 
  46   0.0000       0.585859        15.9420 
  47   0.0000       0.600880        16.3508 
  48   0.0000       0.628482        17.1019 
  49   0.0000       0.631053        17.1718 
  50   0.0000       0.634490        17.2654 
  51   0.0000       0.675413        18.3789 
  52   0.0000       0.696164        18.9436 
  53   0.0000       0.704690        19.1756 
  54   0.0000       0.730967        19.8906 
  55   0.0000       0.745096        20.2751 
  56   0.0000       0.764475        20.8024 
  57   0.0000       0.781303        21.2603 
  58   0.0000       0.804149        21.8820 
  59   0.0000       0.814683        22.1687 
  60   0.0000       0.830663        22.6035 
  61   0.0000       0.837305        22.7842 
  62   0.0000       0.865688        23.5566 
  63   0.0000       0.892453        24.2849 
  64   0.0000       0.908695        24.7269 
  65   0.0000       0.955788        26.0083 
  66   0.0000       1.013838        27.5879 
  67   0.0000       1.090127        29.6639 
  68   0.0000       1.108981        30.1769 
  69   0.0000       1.159166        31.5425 
  70   0.0000       1.189289        32.3622 
  71   0.0000       1.273182        34.6450 
  72   0.0000       1.310536        35.6615 
  73   0.0000       1.327726        36.1293 
  74   0.0000       1.331203        36.2239 
  75   0.0000       1.364887        37.1405 
  76   0.0000       1.367331        37.2070 
  77   0.0000       1.391289        37.8589 
  78   0.0000       1.448124        39.4055 
  79   0.0000       1.503517        40.9128 
  80   0.0000       1.538931        41.8764 
  81   0.0000       1.572861        42.7997 
  82   0.0000       1.584650        43.1205 
  83   0.0000       1.693134        46.0725 
  84   0.0000       1.750293        47.6279 
  85   0.0000       1.756386        47.7937 
  86   0.0000       1.783914        48.5428 
  87   0.0000       1.828144        49.7463 
  88   0.0000       1.838036        50.0155 
  89   0.0000       1.839596        50.0580 
  90   0.0000       1.859873        50.6097 
  91   0.0000       1.881115        51.1877 
  92   0.0000       1.889397        51.4131 
  93   0.0000       1.893017        51.5116 
  94   0.0000       1.934781        52.6481 
  95   0.0000       1.992050        54.2064 
  96   0.0000       2.039384        55.4945 
  97   0.0000       2.069332        56.3094 
  98   0.0000       2.076055        56.4923 
  99   0.0000       2.132290        58.0226 
 100   0.0000       2.191599        59.6364 
 101   0.0000       2.226533        60.5871 
 102   0.0000       2.241363        60.9906 
 103   0.0000       2.283674        62.1419 
 104   0.0000       2.307050        62.7780 
 105   0.0000       2.356200        64.1155 
 106   0.0000       2.358007        64.1646 
 107   0.0000       2.399282        65.2878 
 108   0.0000       2.435143        66.2636 
 109   0.0000       2.440772        66.4168 
 110   0.0000       2.597672        70.6862 
 111   0.0000       2.637195        71.7617 
 112   0.0000       2.676280        72.8253 
 113   0.0000       2.683733        73.0281 
 114   0.0000       2.735580        74.4389 
 115   0.0000       2.792271        75.9816 
 116   0.0000       2.801926        76.2443 
 117   0.0000       2.820412        76.7473 
 118   0.0000       2.823275        76.8252 
 119   0.0000       2.945454        80.1499 
 120   0.0000       2.974244        80.9333 
 121   0.0000       3.066099        83.4328 
 122   0.0000       3.098924        84.3260 
 123   0.0000       3.117173        84.8226 
 124   0.0000       3.248272        88.3900 
 125   0.0000       3.451662        93.9245 
 126   0.0000       3.491864        95.0184 
 127   0.0000       3.786286       103.0301 

                    ********************************
                    * MULLIKEN POPULATION ANALYSIS *
                    ********************************

--------------------------------------------
MULLIKEN ATOMIC CHARGES AND SPIN POPULATIONS
--------------------------------------------
   0 C :   -0.008086    0.006160
   1 C :   -0.068567    0.040671
   2 C :    0.200494   -0.041687
   3 C :   -0.078337    0.019982
   4 C :   -0.011691    0.002390
   5 C :   -0.032589   -0.008961
   6 H :    0.029880    0.002969
   7 H :    0.026526   -0.000510
   8 H :    0.008229    0.003034
   9 H :    0.027869    0.002243
  10 H :    0.022636    0.000185
  11 O :   -0.168146    0.872431
  12 H :    0.051783   -0.898906
Sum of atomic charges         :   -0.0000000
Sum of atomic spin populations:   -0.0000000

-----------------------------------------------------
MULLIKEN REDUCED ORBITAL CHARGES AND SPIN POPULATIONS
-----------------------------------------------------
CHARGE
  0 C s       :     3.149372  s :     3.149372
      pz      :     0.964823  p :     2.822551
      px      :     0.921105
      py      :     0.936623
      dz2     :     0.002564  d :     0.036162
      dxz     :     0.003853
      dyz     :     0.006772
      dx2y2   :     0.011154
      dxy     :     0.011820
  1 C s       :     3.200802  s :     3.200802
      pz      :     1.065214  p :     2.834796
      px      :     0.877991
      py      :     0.891590
      dz2     :     0.002714  d :     0.032969
      dxz     :     0.003450
      dyz     :     0.005438
      dx2y2   :     0.008673
      dxy     :     0.012693
  2 C s       :     2.955000  s :     2.955000
      pz      :     0.958815  p :     2.770214
      px      :     1.024103
      py      :     0.787296
      dz2     :     0.005549  d :     0.074292
      dxz     :     0.007700
      dyz     :     0.019754
      dx2y2   :     0.025045
      dxy     :     0.016245
  3 C s       :     3.199541  s :     3.199541
      pz      :     1.073263  p :     2.845818
      px      :     0.861415
      py      :     0.911140
      dz2     :     0.002704  d :     0.032978
      dxz     :     0.003582
      dyz     :     0.005277
      dx2y2   :     0.009011
      dxy     :     0.012405
  4 C s       :     3.151104  s :     3.151104
      pz      :     0.964531  p :     2.824427
      px      :     0.916160
      py      :     0.943736
      dz2     :     0.002574  d :     0.036160
      dxz     :     0.003699
      dyz     :     0.006941
      dx2y2   :     0.011411
      dxy     :     0.011535
  5 C s       :     3.144096  s :     3.144096
      pz      :     1.029425  p :     2.854152
      px      :     0.954400
      py      :     0.870327
      dz2     :     0.002559  d :     0.034342
      dxz     :     0.006230
      dyz     :     0.002549
      dx2y2   :     0.012393
      dxy     :     0.010612
  6 H s       :     0.947513  s :     0.947513
      pz      :     0.004408  p :     0.022608
      px      :     0.011729
      py      :     0.006471
  7 H s       :     0.950514  s :     0.950514
      pz      :     0.004876  p :     0.022960
      px      :     0.012008
      py      :     0.006076
  8 H s       :     0.968509  s :     0.968509
      pz      :     0.004960  p :     0.023263
      px      :     0.011776
      py      :     0.006527
  9 H s       :     0.949575  s :     0.949575
      pz      :     0.004420  p :     0.022556
      px      :     0.012222
      py      :     0.005914
 10 H s       :     0.954345  s :     0.954345
      pz      :     0.004839  p :     0.023019
      px      :     0.003044
      py      :     0.015136
 11 O s       :     3.854808  s :     3.854808
      pz      :     1.842115  p :     4.301380
      px      :     1.088522
      py      :     1.370743
      dz2     :     0.001653  d :     0.011958
      dxz     :     0.000038
      dyz     :     0.002949
      dx2y2   :     0.004900
      dxy     :     0.002417
 12 H s       :     0.947299  s :     0.947299
      pz      :     0.000080  p :     0.000918
      px      :     0.000566
      py      :     0.000271

SPIN
  0 C s       :     0.000662  s :     0.000662
      pz      :     0.000663  p :     0.005400
      px      :    -0.000245
      py      :     0.004982
      dz2     :     0.000006  d :     0.000097
      dxz     :    -0.000030
      dyz     :    -0.000076
      dx2y2   :     0.000024
      dxy     :     0.000173
  1 C s       :     0.013075  s :     0.013075
      pz      :    -0.002433  p :     0.027436
      px      :     0.016530
      py      :     0.013339
      dz2     :     0.000038  d :     0.000160
      dxz     :     0.000100
      dyz     :     0.000004
      dx2y2   :    -0.000084
      dxy     :     0.000102
  2 C s       :    -0.011787  s :    -0.011787
      pz      :    -0.000996  p :    -0.038802
      px      :    -0.015637
      py      :    -0.022170
      dz2     :     0.000051  d :     0.008902
      dxz     :     0.000053
      dyz     :    -0.000474
      dx2y2   :    -0.000020
      dxy     :     0.009293
  3 C s       :     0.006356  s :     0.006356
      pz      :    -0.004683  p :     0.013661
      px      :     0.013782
      py      :     0.004562
      dz2     :     0.000036  d :    -0.000035
      dxz     :     0.000099
      dyz     :     0.000007
      dx2y2   :    -0.000210
      dxy     :     0.000032
  4 C s       :     0.000032  s :     0.000032
      pz      :     0.000607  p :     0.002319
      px      :     0.000187
      py      :     0.001526
      dz2     :     0.000001  d :     0.000038
      dxz     :    -0.000027
      dyz     :    -0.000101
      dx2y2   :     0.000012
      dxy     :     0.000153
  5 C s       :    -0.000986  s :    -0.000986
      pz      :    -0.007296  p :    -0.008013
      px      :    -0.000518
      py      :    -0.000199
      dz2     :     0.000019  d :     0.000038
      dxz     :    -0.000012
      dyz     :     0.000012
      dx2y2   :    -0.000029
      dxy     :     0.000047
  6 H s       :     0.002980  s :     0.002980
      pz      :     0.000007  p :    -0.000011
      px      :     0.000011
      py      :    -0.000029
  7 H s       :    -0.000513  s :    -0.000513
      pz      :    -0.000031  p :     0.000003
      px      :     0.000063
      py      :    -0.000029
  8 H s       :     0.003484  s :     0.003484
      pz      :    -0.000050  p :    -0.000451
      px      :    -0.000080
      py      :    -0.000321
  9 H s       :     0.002252  s :     0.002252
      pz      :     0.000007  p :    -0.000010
      px      :     0.000003
      py      :    -0.000020
 10 H s       :     0.000241  s :     0.000241
      pz      :    -0.000051  p :    -0.000056
      px      :    -0.000003
      py      :    -0.000002
 11 O s       :     0.016026  s :     0.016026
      pz      :     0.014706  p :     0.856314
      px      :     0.819751
      py      :     0.021857
      dz2     :     0.000098  d :     0.000091
      dxz     :     0.000005
      dyz     :    -0.000000
      dx2y2   :    -0.000107
      dxy     :     0.000096
 12 H s       :    -0.899140  s :    -0.899140
      pz      :    -0.000011  p :     0.000234
      px      :     0.000173
      py      :     0.000071


                     *******************************
                     * LOEWDIN POPULATION ANALYSIS *
                     *******************************

-------------------------------------------
LOEWDIN ATOMIC CHARGES AND SPIN POPULATIONS
-------------------------------------------
   0 C :   -0.012399    0.004744
   1 C :   -0.063807    0.032769
   2 C :    0.024823    0.001169
   3 C :   -0.073191    0.015696
   4 C :   -0.013565    0.000353
   5 C :   -0.060115   -0.007093
   6 H :    0.037701    0.002204
   7 H :    0.038655   -0.000531
   8 H :    0.030519   -0.004998
   9 H :    0.037310    0.001737
  10 H :    0.032493   -0.000183
  11 O :   -0.032259    0.834272
  12 H :    0.053836   -0.880140

----------------------------------------------------
LOEWDIN REDUCED ORBITAL CHARGES AND SPIN POPULATIONS
----------------------------------------------------
CHARGE
  0 C s       :     2.858232  s :     2.858232
      pz      :     0.949324  p :     3.061653
      px      :     1.054098
      py      :     1.058230
      dz2     :     0.005971  d :     0.092515
      dxz     :     0.007224
      dyz     :     0.013905
      dx2y2   :     0.031779
      dxy     :     0.033635
  1 C s       :     2.856830  s :     2.856830
      pz      :     1.039519  p :     3.119888
      px      :     1.027800
      py      :     1.052568
      dz2     :     0.006428  d :     0.087089
      dxz     :     0.006042
      dyz     :     0.011081
      dx2y2   :     0.027185
      dxy     :     0.036353
  2 C s       :     2.849019  s :     2.849019
      pz      :     0.946555  p :     2.956453
      px      :     1.100415
      py      :     0.909483
      dz2     :     0.012073  d :     0.169706
      dxz     :     0.015323
      dyz     :     0.037107
      dx2y2   :     0.061443
      dxy     :     0.043759
  3 C s       :     2.859279  s :     2.859279
      pz      :     1.046363  p :     3.126736
      px      :     1.020696
      py      :     1.059677
      dz2     :     0.006446  d :     0.087176
      dxz     :     0.006351
      dyz     :     0.010700
      dx2y2   :     0.027925
      dxy     :     0.035753
  4 C s       :     2.858291  s :     2.858291
      pz      :     0.949179  p :     3.062781
      px      :     1.053541
      py      :     1.060061
      dz2     :     0.006002  d :     0.092493
      dxz     :     0.006844
      dyz     :     0.014381
      dx2y2   :     0.032540
      dxy     :     0.032727
  5 C s       :     2.855699  s :     2.855699
      pz      :     1.009942  p :     3.114887
      px      :     1.063670
      py      :     1.041275
      dz2     :     0.006085  d :     0.089529
      dxz     :     0.013076
      dyz     :     0.004148
      dx2y2   :     0.035272
      dxy     :     0.030949
  6 H s       :     0.895916  s :     0.895916
      pz      :     0.013392  p :     0.066383
      px      :     0.033843
      py      :     0.019148
  7 H s       :     0.892236  s :     0.892236
      pz      :     0.015769  p :     0.069110
      px      :     0.034940
      py      :     0.018400
  8 H s       :     0.900341  s :     0.900341
      pz      :     0.015879  p :     0.069140
      px      :     0.034004
      py      :     0.019257
  9 H s       :     0.896304  s :     0.896304
      pz      :     0.013413  p :     0.066386
      px      :     0.035121
      py      :     0.017852
 10 H s       :     0.899858  s :     0.899858
      pz      :     0.015086  p :     0.067650
      px      :     0.010807
      py      :     0.041756
 11 O s       :     3.650548  s :     3.650548
      pz      :     1.835199  p :     4.362042
      px      :     1.084137
      py      :     1.442705
      dz2     :     0.002854  d :     0.019669
      dxz     :     0.000043
      dyz     :     0.004056
      dx2y2   :     0.008675
      dxy     :     0.004041
 12 H s       :     0.944495  s :     0.944495
      pz      :     0.000098  p :     0.001670
      px      :     0.001180
      py      :     0.000392

SPIN
  0 C s       :     0.001043  s :     0.001043
      pz      :     0.000431  p :     0.003480
      px      :    -0.000009
      py      :     0.003059
      dz2     :     0.000023  d :     0.000221
      dxz     :    -0.000078
      dyz     :    -0.000173
      dx2y2   :    -0.000022
      dxy     :     0.000472
  1 C s       :     0.008432  s :     0.008432
      pz      :    -0.002110  p :     0.024213
      px      :     0.012915
      py      :     0.013408
      dz2     :     0.000089  d :     0.000125
      dxz     :     0.000113
      dyz     :     0.000033
      dx2y2   :    -0.000020
      dxy     :    -0.000091
  2 C s       :    -0.005327  s :    -0.005327
      pz      :    -0.000364  p :    -0.015366
      px      :     0.002475
      py      :    -0.017477
      dz2     :     0.000359  d :     0.021862
      dxz     :     0.000081
      dyz     :    -0.000672
      dx2y2   :     0.000874
      dxy     :     0.021220
  3 C s       :     0.003637  s :     0.003637
      pz      :    -0.004136  p :     0.012453
      px      :     0.012583
      py      :     0.004006
      dz2     :     0.000064  d :    -0.000394
      dxz     :     0.000115
      dyz     :     0.000025
      dx2y2   :    -0.000499
      dxy     :    -0.000100
  4 C s       :     0.000061  s :     0.000061
      pz      :     0.000347  p :     0.000153
      px      :     0.000067
      py      :    -0.000260
      dz2     :     0.000005  d :     0.000138
      dxz     :    -0.000069
      dyz     :    -0.000222
      dx2y2   :     0.000009
      dxy     :     0.000415
  5 C s       :    -0.000335  s :    -0.000335
      pz      :    -0.006614  p :    -0.006862
      px      :    -0.000047
      py      :    -0.000201
      dz2     :     0.000020  d :     0.000104
      dxz     :    -0.000026
      dyz     :     0.000018
      dx2y2   :    -0.000059
      dxy     :     0.000151
  6 H s       :     0.002135  s :     0.002135
      pz      :     0.000019  p :     0.000069
      px      :    -0.000010
      py      :     0.000060
  7 H s       :    -0.000870  s :    -0.000870
      pz      :    -0.000118  p :     0.000339
      px      :     0.000555
      py      :    -0.000098
  8 H s       :    -0.003701  s :    -0.003701
      pz      :    -0.000175  p :    -0.001297
      px      :    -0.000234
      py      :    -0.000888
  9 H s       :     0.001772  s :     0.001772
      pz      :     0.000017  p :    -0.000035
      px      :    -0.000023
      py      :    -0.000029
 10 H s       :     0.000055  s :     0.000055
      pz      :    -0.000188  p :    -0.000237
      px      :    -0.000021
      py      :    -0.000028
 11 O s       :     0.006944  s :     0.006944
      pz      :     0.013750  p :     0.827574
      px      :     0.797434
      py      :     0.016390
      dz2     :    -0.000093  d :    -0.000247
      dxz     :     0.000004
      dyz     :     0.000002
      dx2y2   :    -0.000039
      dxy     :    -0.000120
 12 H s       :    -0.880871  s :    -0.880871
      pz      :    -0.000010  p :     0.000731
      px      :     0.000556
      py      :     0.000186


                      *****************************
                      * MAYER POPULATION ANALYSIS *
                      *****************************

  NA   - Mulliken gross atomic population
  ZA   - Total nuclear charge
  QA   - Mulliken gross atomic charge
  VA   - Mayer's total valence
  BVA  - Mayer's bonded valence
  FA   - Mayer's free valence

  ATOM       NA         ZA         QA         VA         BVA        FA
  0 C      6.0081     6.0000    -0.0081     3.8823     3.8823     0.0000
  1 C      6.0686     6.0000    -0.0686     3.8898     3.8879     0.0020
  2 C      5.7995     6.0000     0.2005     3.9314     3.9289     0.0026
  3 C      6.0783     6.0000    -0.0783     3.8838     3.8823     0.0015
  4 C      6.0117     6.0000    -0.0117     3.8915     3.8915     0.0000
  5 C      6.0326     6.0000    -0.0326     3.8554     3.8553     0.0001
  6 H      0.9701     1.0000     0.0299     0.9851     0.9851     0.0000
  7 H      0.9735     1.0000     0.0265     0.9953     0.9953     0.0000
  8 H      0.9918     1.0000     0.0082     1.0009     1.0007     0.0001
  9 H      0.9721     1.0000     0.0279     0.9848     0.9848     0.0000
 10 H      0.9774     1.0000     0.0226     0.9853     0.9853     0.0000
 11 O      8.1681     8.0000    -0.1681     2.1738     1.4768     0.6970
 12 H      0.9482     1.0000     0.0518     1.0030     0.1882     0.8149

  Mayer bond orders larger than 0.1
B(  0-C ,  1-C ) :   1.4061 B(  0-C ,  5-C ) :   1.3905 B(  0-C ,  6-H ) :   0.9856 
B(  1-C ,  2-C ) :   1.3365 B(  1-C ,  7-H ) :   0.9922 B(  2-C ,  3-C ) :   1.3331 
B(  2-C , 11-O ) :   1.1651 B(  3-C ,  4-C ) :   1.3975 B(  3-C ,  8-H ) :   0.9905 
B(  4-C ,  5-C ) :   1.4021 B(  4-C ,  9-H ) :   0.9852 B(  5-C , 10-H ) :   0.9916 
B( 11-O , 12-H ) :   0.1582 

-------
TIMINGS
-------

Total SCF time: 0 days 0 hours 3 min 14 sec 

Total time                  ....     194.455 sec
Sum of individual times     ....     194.251 sec  ( 99.9%)

Fock matrix formation       ....     154.837 sec  ( 79.6%)
  Split-RI-J                ....      12.071 sec  (  7.8% of F)
  Chain of spheres X        ....     129.098 sec  ( 83.4% of F)
  COS-X 1 center corr.      ....       0.000 sec  (  0.0% of F)
  XC integration            ....      13.590 sec  (  8.8% of F)
    Basis function eval.    ....       5.093 sec  ( 37.5% of XC)
    Density eval.           ....       2.068 sec  ( 15.2% of XC)
    XC-Functional eval.     ....       2.102 sec  ( 15.5% of XC)
    XC-Potential eval.      ....       4.164 sec  ( 30.6% of XC)
Diagonalization             ....       0.208 sec  (  0.1%)
Density matrix formation    ....       0.012 sec  (  0.0%)
Population analysis         ....       0.009 sec  (  0.0%)
Initial guess               ....       0.516 sec  (  0.3%)
Orbital Transformation      ....       0.000 sec  (  0.0%)
Orbital Orthonormalization  ....       0.000 sec  (  0.0%)
DIIS solution               ....       0.052 sec  (  0.0%)
Grid generation             ....       2.246 sec  (  1.2%)
SCF Stability Analysis      ....      36.370 sec  ( 18.7%)
------------------------------------------------------------------------------
                        ORCA TD-DFT/TDA CALCULATION
------------------------------------------------------------------------------

Input orbitals are from        ... /scratch/ch1tk/orca.15405/wB97XD3_def2-SVP_toluene_S0_TDA6S_2-20.gbw
CI-vector output               ... /scratch/ch1tk/orca.15405/wB97XD3_def2-SVP_toluene_S0_TDA6S_2-20.cis
Tamm-Dancoff approximation     ... operative
CIS-Integral strategy          ... AO-integrals
Integral handling              ... AO integral Direct
Max. core memory used          ... 512 MB
Reference state                ... UHF
Number of operators            ... 2
Orbital ranges used for CIS calculation:
 Operator 0:  Orbitals   7... 24  to  25...127
 Operator 1:  Orbitals   7... 24  to  25...127
XAS localization array:
 Operator 0:  Orbitals  -1... -1
 Operator 1:  Orbitals  -1... -1
-------------------
XC-INTEGRATION GRID
-------------------

General Integration Accuracy     IntAcc      ...  3.670
Radial Grid Type                 RadialGrid  ... Gauss-Chebyshev
Angular Grid (max. acc.)         AngularGrid ... Lebedev-50
Angular grid pruning method      GridPruning ... 3 (G Style)
Weight generation scheme         WeightScheme... Becke
Basis function cutoff            BFCut       ...    1.0000e-10
Integration weight cutoff        WCut        ...    1.0000e-14
Grids for H and He will be reduced by one unit

# of grid points (after initial pruning)     ...   7582 (   0.0 sec)
# of grid points (after weights+screening)   ...   7154 (   0.0 sec)
nearest neighbour list constructed           ...    0.0 sec
Grid point re-assignment to atoms done       ...    0.0 sec
Grid point division into batches done        ...    0.0 sec
Reduced shell lists constructed in    0.1 sec

Total number of grid points                  ...     7154
Total number of batches                      ...      117
Average number of points per batch           ...       61
Average number of grid points per atom       ...      550
Average number of shells per batch           ...    46.19 (76.99%)
Average number of basis functions per batch  ...    98.69 (77.10%)
Average number of large shells per batch     ...    37.47 (81.10%)
Average number of large basis fcns per batch ...    78.86 (79.91%)
Maximum spatial batch extension              ...  17.81, 15.26, 27.71 au
Average spatial batch extension              ...   4.58,  4.34,  7.07 au

---------------------
COSX-INTEGRATION GRID
---------------------

General Integration Accuracy     IntAcc      ...  2.670
Radial Grid Type                 RadialGrid  ... Gauss-Chebyshev
Angular Grid (max. acc.)         AngularGrid ... Lebedev-50
Angular grid pruning method      GridPruning ... 3 (G Style)
Weight generation scheme         WeightScheme... Becke
Basis function cutoff            BFCut       ...    1.0000e-10
Integration weight cutoff        WCut        ...    1.0000e-14
Grids for H and He will be reduced by one unit

# of grid points (after initial pruning)     ...   4338 (   0.0 sec)
# of grid points (after weights+screening)   ...   4111 (   0.0 sec)
nearest neighbour list constructed           ...    0.0 sec
Grid point re-assignment to atoms done       ...    0.0 sec
Grid point division into batches done        ...    0.0 sec
Reduced shell lists constructed in    0.1 sec

Total number of grid points                  ...     4111
Total number of batches                      ...       72
Average number of points per batch           ...       57
Average number of grid points per atom       ...      316
Average number of shells per batch           ...    47.00 (78.33%)
Average number of basis functions per batch  ...   101.03 (78.93%)
Average number of large shells per batch     ...    38.62 (82.16%)
Average number of large basis fcns per batch ...    82.10 (81.26%)
Maximum spatial batch extension              ...  13.79, 12.29, 29.42 au
Average spatial batch extension              ...   4.80,  4.47,  7.43 au


---------------
TD-DFT XC SETUP
---------------

DFT calculation                         ... on
Name of the grid file                   ... /scratch/ch1tk/orca.15405/wB97XD3_def2-SVP_toluene_S0_TDA6S_2-20.grid_cis.tmp
Exchange functional (SCF)               ... WB97X-D3
Exchange functional (TD-DFT)            ... WB97X-D3
Correlation functional (SCF)            ... WB97X-D3
Correlation functional (TD-DFT)         ... WB97X-D3
Hybrid DFT                              ... on
   Exchange mixing (SCF)                ...  0.196
   Exchange mixing (TD-DFT)             ...  0.196
   GGA exch. scaling(SCF)               ...  0.000
   GGA exch. scaling (TD-DFT)           ...  0.000
   GGA corr. scaling (SCF)              ...  1.000
   GGA corr. scaling (TD-DFT)           ...  1.000
Range-Separated Exchange                ... on
   Range Range separation parameter mu  .... 0.250
   Max. amount of RS exchange (SCF)     ...  0.804
   Max. amount of RS exchange (TD-DFT)  ...  0.804

Building densities             ... done
Calculating rho(r) on the grid ... done
Building xc-kernel on the grid ... done
                    *** TD-DFT CALCULATION INITIALIZED ***


------------------------
DAVIDSON-DIAGONALIZATION
------------------------

Dimension of the eigenvalue problem            ...   3708
Number of roots to be determined               ...      6
Maximum size of the expansion space            ...     60
Convergence tolerance for the residual         ...    1.000e-06
Convergence tolerance for the energies         ...    1.000e-06
Orthogonality tolerance                        ...    1.000e-14
Level Shift                                    ...    0.000e+00
Constructing the preconditioner                ... o.k.
Building the initial guess                     ... o.k.
Number of trial vectors determined             ...     60


                       ****Iteration    0****

   Memory handling for direct AO based CIS:
   Memory per vector needed      ...     1 MB
   Memory needed                 ...    23 MB
   Memory available              ...   512 MB
   Number of vectors per batch   ...   391
   Number of batches             ...     1
   Time for densities:     0.021
   Time for RI-J (Direct):     4.486
   Time for K (COSX):     3.762
   Time for XC-Integration:     2.477
   Time for Sigma-Completion:     0.088
   Size of expansion space: 18
   Lowest Energy          :     0.007459876245
   Maximum Energy change  :     0.169207692433 (vector 5)
   Maximum residual norm  :     0.008370162396

                       ****Iteration    1****
   Time for densities:     0.007
   Time for RI-J (Direct):     1.642
   Time for K (COSX):     3.226
   Time for XC-Integration:     0.886
   Time for Sigma-Completion:     0.030
   Size of expansion space: 24
   Lowest Energy          :    -0.001382455816
   Maximum Energy change  :     0.010452349495 (vector 2)
   Maximum residual norm  :     0.001811999071

                       ****Iteration    2****
   Time for densities:     0.007
   Time for RI-J (Direct):     1.664
   Time for K (COSX):     3.161
   Time for XC-Integration:     0.871
   Time for Sigma-Completion:     0.029
   Size of expansion space: 30
   Lowest Energy          :    -0.002159596789
   Maximum Energy change  :     0.011592113784 (vector 3)
   Maximum residual norm  :     0.001334295604

                       ****Iteration    3****
   Time for densities:     0.007
   Time for RI-J (Direct):     1.635
   Time for K (COSX):     3.172
   Time for XC-Integration:     0.864
   Time for Sigma-Completion:     0.029
   Size of expansion space: 36
   Lowest Energy          :    -0.002172110588
   Maximum Energy change  :     0.003281740190 (vector 3)
   Maximum residual norm  :     0.000378993378

                       ****Iteration    4****
   Time for densities:     0.007
   Time for RI-J (Direct):     1.630
   Time for K (COSX):     3.161
   Time for XC-Integration:     0.865
   Time for Sigma-Completion:     0.029
   Size of expansion space: 42
   Lowest Energy          :    -0.002172290678
   Maximum Energy change  :     0.000639887882 (vector 2)
   Maximum residual norm  :     0.000059789498

                       ****Iteration    5****
   Time for densities:     0.007
   Time for RI-J (Direct):     1.627
   Time for K (COSX):     3.173
   Time for XC-Integration:     0.865
   Time for Sigma-Completion:     0.029
   Size of expansion space: 48
   Lowest Energy          :    -0.002172294428
   Maximum Energy change  :     0.000076027282 (vector 2)
   Maximum residual norm  :     0.000005326234

                       ****Iteration    6****
   Time for densities:     0.007
   Time for RI-J (Direct):     1.627
   Time for K (COSX):     3.173
   Time for XC-Integration:     0.867
   Time for Sigma-Completion:     0.029
   Size of expansion space: 54
   Lowest Energy          :    -0.002172294493
   Maximum Energy change  :     0.000005500732 (vector 2)
   Maximum residual norm  :     0.000000435860

      *** CONVERGENCE OF RESIDUAL NORM REACHED ***

Storing the converged CI vectors               ... /scratch/ch1tk/orca.15405/wB97XD3_def2-SVP_toluene_S0_TDA6S_2-20.cis1

                 *** DAVIDSON DONE ***

Total time for solving the CIS problem:    45.320sec

-------------------------
TD-DFT/TDA EXCITED STATES
-------------------------

the weight of the individual excitations are printed if larger than 0.01

STATE  1:  E=  -0.002172 au     -0.059 eV     -476.8 cm**-1
    18b ->  25b  :     0.035420 (c=  0.18820093)
    21b ->  25b  :     0.158736 (c= -0.39841665)
    24b ->  25b  :     0.801401 (c=  0.89520991)

STATE  2:  E=   0.108327 au      2.948 eV    23775.0 cm**-1
    23b ->  25b  :     0.998451 (c= -0.99922505)

STATE  3:  E=   0.139848 au      3.805 eV    30693.2 cm**-1
    13b ->  25b  :     0.013838 (c= -0.11763446)
    15b ->  25b  :     0.074902 (c=  0.27368257)
    16b ->  25b  :     0.099544 (c= -0.31550635)
    19b ->  25b  :     0.046237 (c= -0.21502701)
    22b ->  25b  :     0.726618 (c= -0.85241870)

STATE  4:  E=   0.140533 au      3.824 eV    30843.5 cm**-1
    18b ->  25b  :     0.347179 (c=  0.58921929)
    21b ->  25b  :     0.456837 (c= -0.67589694)
    24b ->  25b  :     0.184657 (c= -0.42971748)

STATE  5:  E=   0.155015 au      4.218 eV    34021.8 cm**-1
    21a ->  33a  :     0.010352 (c= -0.10174621)
    23a ->  26a  :     0.152237 (c=  0.39017609)
    24a ->  27a  :     0.310481 (c= -0.55720867)
    23b ->  26b  :     0.153982 (c= -0.39240542)
    24b ->  27b  :     0.331029 (c=  0.57535114)

STATE  6:  E=   0.160257 au      4.361 eV    35172.3 cm**-1
    21a ->  25a  :     0.049193 (c=  0.22179563)
    23a ->  25a  :     0.020662 (c= -0.14374192)
    24a ->  25a  :     0.917585 (c= -0.95790671)


-----------------------------
TD-DFT/TDA-EXCITATION SPECTRA
-----------------------------

Center of mass = (  0.0062,  0.0500,  0.0000)
Calculating the Dipole integrals                  ... done
Transforming integrals                            ... done
Calculating the Linear Momentum integrals         ... done
Transforming integrals                            ... done
Calculating angular momentum integrals            ... done
Transforming integrals                            ... done

-----------------------------------------------------------------------------
         ABSORPTION SPECTRUM VIA TRANSITION ELECTRIC DIPOLE MOMENTS
-----------------------------------------------------------------------------
State   Energy  Wavelength   fosc         T2         TX        TY        TZ  
        (cm-1)    (nm)                  (au**2)     (au)      (au)      (au) 
-----------------------------------------------------------------------------
   1    -476.8   -20974.8   -0.000000000   0.00000   0.00000   0.00002   0.00008
   2   23775.0    420.6   0.000040543   0.00056   0.00001   0.00001  -0.02369
   3   30693.2    325.8   0.073536326   0.78874   0.66222   0.59178  -0.00000
   4   30843.5    324.2   0.000000417   0.00000   0.00069   0.00059  -0.00190
   5   34021.8    293.9   0.000145780   0.00141   0.00312  -0.03743   0.00000
   6   35172.3    284.3   0.000003932   0.00004   0.00000  -0.00000   0.00607

-----------------------------------------------------------------------------
         ABSORPTION SPECTRUM VIA TRANSITION VELOCITY DIPOLE MOMENTS
-----------------------------------------------------------------------------
State   Energy  Wavelength   fosc         P2         PX        PY        PZ  
        (cm-1)    (nm)                  (au**2)     (au)      (au)      (au) 
-----------------------------------------------------------------------------
   1    -476.8   -20974.8   -0.006161568   0.00002   0.00000   0.00000   0.00448
   2   23775.0    420.6   0.001047260   0.00017   0.00000   0.00000  -0.01304
   3   30693.2    325.8   0.045193843   0.00948  -0.03139  -0.09217  -0.00000
   4   30843.5    324.2   0.000068345   0.00001  -0.00003  -0.00010   0.00379
   5   34021.8    293.9   0.000023693   0.00001   0.00012  -0.00234  -0.00000
   6   35172.3    284.3   0.000439888   0.00011   0.00000   0.00000   0.01028

-------------------------------------------------------------------
                             CD SPECTRUM
-------------------------------------------------------------------
State   Energy Wavelength       R         MX        MY        MZ   
        (cm-1)   (nm)       (1e40*cgs)   (au)      (au)      (au)  
-------------------------------------------------------------------
   1    -476.8   -20974.8      0.00316  -0.05333   0.35955  -0.00000
   2   23775.0    420.6      0.00002   0.01879   0.00758   0.00000
   3   30693.2    325.8     -0.05307   0.00002  -0.00021  -0.42756
   4   30843.5    324.2      0.05194  -0.02104   0.20902  -0.00043
   5   34021.8    293.9      0.00006  -0.00000  -0.00000  -0.00616
   6   35172.3    284.3     -0.00003  -0.06931   0.01876   0.00000

Total run time:       45.917 sec

           *** ORCA-CIS/TD-DFT FINISHED WITHOUT ERROR ***

-----------------------
CIS/TD-DFT TOTAL ENERGY
-----------------------

    E(SCF)  =   -306.980730263 Eh
    DE(CIS) =     -0.002172294 Eh (Root  1)
    ----------------------------- ---------
    E(tot)  =   -306.982902558 Eh



-------------------------------------------------------------------------------
                          DFT DISPERSION CORRECTION                            
                                                                               
                              DFTD3 V3.1  Rev 1                                
                              USING zero damping                               
-------------------------------------------------------------------------------
The omegaB97X-D3 functional is recognized. Fit by Chai et al.
Active option DFTDOPT                   ...         3   

molecular C6(AA) [au] = 2038.007444 


            DFT-D V3
 parameters
 s6 scaling factor         :     1.0000 
 rs6 scaling factor        :     1.2810 
 s8 scaling factor         :     1.0000 
 rs8 scaling factor        :     1.0940 
 Damping factor alpha6     :    14.0000 
 Damping factor alpha8     :    16.0000 
 ad hoc parameters k1-k3   :    16.0000     1.3333    -4.0000 

 Edisp/kcal,au: -1.956168573861  -0.003117352719 
 E6   /kcal   :  -0.799106104 
 E8   /kcal   :  -1.157062470 
 % E8         :  59.149425317 

-------------------------   ----------------
Dispersion correction           -0.003117353
-------------------------   ----------------


-------------------------   --------------------
FINAL SINGLE POINT ENERGY      -306.983847616167
-------------------------   --------------------


                            ***************************************
                            *     ORCA property calculations      *
                            ***************************************

                                    ---------------------
                                    Active property flags
                                    ---------------------
   (+) Dipole Moment


------------------------------------------------------------------------------
                       ORCA ELECTRIC PROPERTIES CALCULATION
------------------------------------------------------------------------------

Dipole Moment Calculation                       ... on
Quadrupole Moment Calculation                   ... off
Polarizability Calculation                      ... off
GBWName                                         ... /scratch/ch1tk/orca.15405/wB97XD3_def2-SVP_toluene_S0_TDA6S_2-20.gbw
Electron density file                           ... /scratch/ch1tk/orca.15405/wB97XD3_def2-SVP_toluene_S0_TDA6S_2-20.scfp.tmp
The origin for moment calculation is the CENTER OF MASS  = ( 0.006157,  0.049979  0.000000)

-------------
DIPOLE MOMENT
-------------
                                X             Y             Z
Electronic contribution:     -1.64479       1.21464      -0.00000
Nuclear contribution   :      1.84943      -1.59218       0.00000
                        -----------------------------------------
Total Dipole Moment    :      0.20464      -0.37754      -0.00000
                        -----------------------------------------
Magnitude (a.u.)       :      0.42943
Magnitude (Debye)      :      1.09153


Timings for individual modules:

Sum of individual times         ...      240.704 sec (=   4.012 min)
GTO integral calculation        ...        0.275 sec (=   0.005 min)   0.1 %
SCF iterations                  ...      194.477 sec (=   3.241 min)  80.8 %
CIS module                      ...       45.953 sec (=   0.766 min)  19.1 %
                             ****ORCA TERMINATED NORMALLY****
TOTAL RUN TIME: 0 days 0 hours 4 minutes 0 seconds 969 msec
