
                                 *****************
                                 * O   R   C   A *
                                 *****************

           --- An Ab Initio, DFT and Semiempirical electronic structure package ---

                  #######################################################
                  #                        -***-                        #
                  #  Department of molecular theory and spectroscopy    #
                  #              Directorship: Frank Neese              #
                  # Max Planck Institute for Chemical Energy Conversion #
                  #                  D-45470 Muelheim/Ruhr              #
                  #                       Germany                       #
                  #                                                     #
                  #                  All rights reserved                #
                  #                        -***-                        #
                  #######################################################


                         Program Version 4.0.1.2 - RELEASE -


 With contributions from (in alphabetic order):
   Daniel Aravena         : Magnetic Properties
   Michael Atanasov       : Ab Initio Ligand Field Theory
   Ute Becker             : Parallelization
   Martin Brehm           : Molecular dynamics
   Dmytro Bykov           : SCF Hessian
   Vijay G. Chilkuri      : MRCI spin determinant printing
   Dipayan Datta          : RHF DLPNO-CCSD density
   Achintya Kumar Dutta   : EOM-CC, STEOM-CC
   Dmitry Ganyushin       : Spin-Orbit,Spin-Spin,Magnetic field MRCI
   Yang Guo               : DLPNO-NEVPT2, CIM, IAO-localization
   Andreas Hansen         : Spin unrestricted coupled pair/coupled cluster methods
   Lee Huntington         : MR-EOM, pCC
   Robert Izsak           : Overlap fitted RIJCOSX, COSX-SCS-MP3, EOM
   Christian Kollmar      : KDIIS, OOCD, Brueckner-CCSD(T), CCSD density
   Simone Kossmann        : Meta GGA functionals, TD-DFT gradient, OOMP2, MP2 Hessian
   Martin Krupicka        : AUTO-CI
   Dagmar Lenk            : GEPOL surface
   Dimitrios Liakos       : Extrapolation schemes; parallel MDCI
   Dimitrios Manganas     : ROCIS; embedding schemes
   Dimitrios Pantazis     : SARC Basis sets
   Taras Petrenko         : DFT Hessian,TD-DFT gradient, ASA, ECA, R-Raman, ABS, FL, XAS/XES, NRVS
   Peter Pinski           : DLPNO-MP2
   Christoph Reimann      : Effective Core Potentials
   Marius Retegan         : Local ZFS, SOC
   Christoph Riplinger    : Optimizer, TS searches, QM/MM, DLPNO-CCSD(T), (RO)-DLPNO pert. Triples
   Tobias Risthaus        : Range-separated hybrids, TD-DFT gradient, RPA, STAB
   Michael Roemelt        : Restricted open shell CIS
   Masaaki Saitow         : Open-shell DLPNO
   Barbara Sandhoefer     : DKH picture change effects
   Kantharuban Sivalingam : CASSCF convergence, NEVPT2, FIC-MRCI
   Georgi Stoychev        : AutoAux
   Boris Wezisla          : Elementary symmetry handling
   Frank Wennmohs         : Technical directorship


 We gratefully acknowledge several colleagues who have allowed us to
 interface, adapt or use parts of their codes:
   Stefan Grimme, W. Hujo, H. Kruse,             : VdW corrections, initial TS optimization,
                  C. Bannwarth                     DFT functionals, gCP, sTDA/sTD-DF
   Ed Valeev                                     : LibInt (2-el integral package), F12 methods
   Garnet Chan, S. Sharma, J. Yang, R. Olivares  : DMRG
   Ulf Ekstrom                                   : XCFun DFT Library
   Mihaly Kallay                                 : mrcc  (arbitrary order and MRCC methods)
   Andreas Klamt, Michael Diedenhofen            : otool_cosmo (COSMO solvation model)
   Jiri Pittner, Ondrej Demel                    : Mk-CCSD
   Frank Weinhold                                : gennbo (NPA and NBO analysis)
   Christopher J. Cramer and Donald G. Truhlar   : smd solvation model


 Your calculation uses the libint2 library for the computation of 2-el integrals
 For citations please refer to: http://libint.valeyev.net

 This ORCA versions uses:
   CBLAS   interface :  Fast vector & matrix operations
   LAPACKE interface :  Fast linear algebra routines
   SCALAPACK package :  Parallel linear algebra routines


Your calculation utilizes the atom-pairwise dispersion correction
with the zero-damping scheme (D30)
Cite in your paper:
S.Grimme, J.Antony, S.Ehrlich and H.Krieg, J.Chem.Phys., 132, (2010), 154104 
   

XCFun DFT library Copyright 2009-2010 Ulf Ekstrom and contributors.
See http://admol.org/xcfun for more information. This is free soft-
ware; see the source code for copying conditions. There is ABSOLUTELY
NO WARRANTY; not even for MERCHANTABILITY or FITNESS FOR A PARTICULAR
PURPOSE. For details see the documentation. Scientific users of this 
library should cite U. Ekstrom, L. Visscher, R. Bast, A. J. Thorvald-
sen and K. Ruud; J.Chem.Theor.Comp. 2010, DOI: 10.1021/ct100117s
XCFun Version 0.99 
Your calculation utilizes the basis: def2-SVP
   F. Weigend and R. Ahlrichs, Phys. Chem. Chem. Phys. 7, 3297 (2005).

Your calculation utilizes the auxiliary basis: def2/JK
   H-Ba, Hf-Rn: F. Weigend, J. Comput. Chem. 29, 167 (2008).

WARNING: Overwriting auxiliary coulomb basis with /JK basis!
================================================================================
                                        WARNINGS
                       Please study these warnings very carefully!
================================================================================

Warning: TCutStore was < 0. Adjusted to Thresh (uncritical)
INFO   : Checking CIS options ...

WARNING: CIS/ROCIS methods need fully converged wavefunctions
  ===> : Setting SCFConvForced true
         You can overwrite this default with %scf ConvForced false 


INFO   : the flag for use of LIBINT has been found!

================================================================================
                                       INPUT FILE
================================================================================
NAME = /scratch/ch1tk/orca.15456/wB97XD3_def2-SVP_toluene_S0_TDA6S_2-80.inp
|  1> ! UKS wB97X-D3 def2-SVP RIJCOSX def2/JK SlowConv
|  2>  
|  3> 
|  4> %scf
|  5> 	MaxIter		500
|  6> 	STABPerform	True
|  7> end
|  8> 
|  9> %tddft
| 10> 	NRoots 6
| 11> end
| 12> 
| 13> * xyz 0 1
| 14>  C                 -1.18578599   -1.17301779    0.00000000
| 15>  C                 -1.22528521    0.21672485    0.00000000
| 16>  C                 -0.03021307    0.94488843    0.00000000
| 17>  C                  1.19387265    0.26897053    0.00000000
| 18>  C                  1.21998389   -1.12396818    0.00000000
| 19>  C                  0.03366349   -1.85245673    0.00000000
| 20>  H                 -2.12142076   -1.73821028    0.00000000
| 21>  H                 -2.17044776    0.76362561    0.00000000
| 22>  H                  2.12866956    0.83920121    0.00000000
| 23>  H                  2.18175171   -1.64285600    0.00000000
| 24>  H                  0.05704252   -2.94432740    0.00000000
| 25>  O                 -0.11105943    2.29589847    0.00000000
| 26>  H                  2.47018538    3.38087553    0.00000000
| 27> end
| 28> 
| 29>                          ****END OF INPUT****
================================================================================

                       ****************************
                       * Single Point Calculation *
                       ****************************

---------------------------------
CARTESIAN COORDINATES (ANGSTROEM)
---------------------------------
  C     -1.185786   -1.173018    0.000000
  C     -1.225285    0.216725    0.000000
  C     -0.030213    0.944888    0.000000
  C      1.193873    0.268971    0.000000
  C      1.219984   -1.123968    0.000000
  C      0.033663   -1.852457    0.000000
  H     -2.121421   -1.738210    0.000000
  H     -2.170448    0.763626    0.000000
  H      2.128670    0.839201    0.000000
  H      2.181752   -1.642856    0.000000
  H      0.057043   -2.944327    0.000000
  O     -0.111059    2.295898    0.000000
  H      2.470185    3.380876    0.000000

----------------------------
CARTESIAN COORDINATES (A.U.)
----------------------------
  NO LB      ZA    FRAG     MASS         X           Y           Z
   0 C     6.0000    0    12.011   -2.240811   -2.216682    0.000000
   1 C     6.0000    0    12.011   -2.315453    0.409551    0.000000
   2 C     6.0000    0    12.011   -0.057094    1.785580    0.000000
   3 C     6.0000    0    12.011    2.256092    0.508281    0.000000
   4 C     6.0000    0    12.011    2.305435   -2.123992    0.000000
   5 C     6.0000    0    12.011    0.063615   -3.500636    0.000000
   6 H     1.0000    0     1.008   -4.008904   -3.284741    0.000000
   7 H     1.0000    0     1.008   -4.101552    1.443043    0.000000
   8 H     1.0000    0     1.008    4.022602    1.585860    0.000000
   9 H     1.0000    0     1.008    4.122913   -3.104548    0.000000
  10 H     1.0000    0     1.008    0.107795   -5.563972    0.000000
  11 O     8.0000    0    15.999   -0.209872    4.338619    0.000000
  12 H     1.0000    0     1.008    4.667974    6.388929    0.000000

--------------------------------
INTERNAL COORDINATES (ANGSTROEM)
--------------------------------
 C      0   0   0     0.000000000000     0.00000000     0.00000000
 C      1   0   0     1.390303849457     0.00000000     0.00000000
 C      2   1   0     1.399435464408   119.72614521     0.00000000
 C      3   2   1     1.398302848974   119.73915203     0.00000000
 C      4   3   2     1.393183421761   119.98059071     0.00000000
 C      5   4   3     1.392139238344   120.47909682     0.00000000
 H      1   2   3     1.093094219903   119.50705551   180.00000085
 H      2   1   3     1.091985662548   121.68304388   180.00000000
 H      4   3   2     1.094992370457   119.70992277   180.00000000
 H      5   4   3     1.092813757843   119.42141969   180.00000000
 H      6   5   4     1.092120936092   120.32638097   180.00000085
 O      3   2   1     1.353426858794   117.92958877   180.00000000
 H      9   4   3     2.564515822579   129.03619116     0.00000000

---------------------------
INTERNAL COORDINATES (A.U.)
---------------------------
 C      0   0   0     0.000000000000     0.00000000     0.00000000
 C      1   0   0     2.627293518410     0.00000000     0.00000000
 C      2   1   0     2.644549769828   119.72614521     0.00000000
 C      3   2   1     2.642409436842   119.73915203     0.00000000
 C      4   3   2     2.632735121448   119.98059071     0.00000000
 C      5   4   3     2.630761900756   120.47909682     0.00000000
 H      1   2   3     2.065648714189   119.50705551   180.00000085
 H      2   1   3     2.063553844385   121.68304388   180.00000000
 H      4   3   2     2.069235698897   119.70992277   180.00000000
 H      5   4   3     2.065118717705   119.42141969   180.00000000
 H      6   5   4     2.063809474335   120.32638097   180.00000085
 O      3   2   1     2.557606105415   117.92958877   180.00000000
 H      9   4   3     4.846232570782   129.03619116     0.00000000

---------------------
BASIS SET INFORMATION
---------------------
There are 3 groups of distinct atoms

 Group   1 Type C   : 7s4p1d contracted to 3s2p1d pattern {511/31/1}
 Group   2 Type H   : 4s1p contracted to 2s1p pattern {31/1}
 Group   3 Type O   : 7s4p1d contracted to 3s2p1d pattern {511/31/1}

Atom   0C    basis set group =>   1
Atom   1C    basis set group =>   1
Atom   2C    basis set group =>   1
Atom   3C    basis set group =>   1
Atom   4C    basis set group =>   1
Atom   5C    basis set group =>   1
Atom   6H    basis set group =>   2
Atom   7H    basis set group =>   2
Atom   8H    basis set group =>   2
Atom   9H    basis set group =>   2
Atom  10H    basis set group =>   2
Atom  11O    basis set group =>   3
Atom  12H    basis set group =>   2
-------------------------------
AUXILIARY BASIS SET INFORMATION
-------------------------------
There are 3 groups of distinct atoms

 Group   1 Type C   : 14s10p6d2f1g contracted to 10s8p5d1f1g pattern {5111111111/31111111/21111/2/1}
 Group   2 Type H   : 4s2p2d contracted to 2s2p2d pattern {31/11/11}
 Group   3 Type O   : 14s10p6d2f1g contracted to 10s8p4d2f1g pattern {5111111111/31111111/3111/11/1}

Atom   0C    basis set group =>   1
Atom   1C    basis set group =>   1
Atom   2C    basis set group =>   1
Atom   3C    basis set group =>   1
Atom   4C    basis set group =>   1
Atom   5C    basis set group =>   1
Atom   6H    basis set group =>   2
Atom   7H    basis set group =>   2
Atom   8H    basis set group =>   2
Atom   9H    basis set group =>   2
Atom  10H    basis set group =>   2
Atom  11O    basis set group =>   3
Atom  12H    basis set group =>   2
------------------------------------------------------------------------------
                           ORCA GTO INTEGRAL CALCULATION
                           -- RI-GTO INTEGRALS CHOSEN --
------------------------------------------------------------------------------

                         BASIS SET STATISTICS AND STARTUP INFO

Gaussian basis set:
 # of primitive gaussian shells          ...  114
 # of primitive gaussian functions       ...  210
 # of contracted shells                  ...   60
 # of contracted basis functions         ...  128
 Highest angular momentum                ...    2
 Maximum contraction depth               ...    5
Auxiliary gaussian basis set:
 # of primitive gaussian shells          ...  279
 # of primitive gaussian functions       ...  799
 # of contracted shells                  ...  211
 # of contracted aux-basis functions     ...  635
 Highest angular momentum                ...    4
 Maximum contraction depth               ...    5
Ratio of auxiliary to basis functions    ...  4.96
Integral package used                  ... LIBINT
 One Electron integrals                  ... done
 Ordering auxiliary basis shells         ... done
 Integral threshhold             Thresh  ...  1.000e-10
 Primitive cut-off               TCut    ...  1.000e-11
 Pre-screening matrix                    ... done
 Shell pair data                         ... 
 Ordering of the shell pairs             ... done (   0.000 sec) 1750 of 1830 pairs
 Determination of significant pairs      ... done (   0.000 sec)
 Creation of shell pair data             ... done (   0.001 sec)
 Storage of shell pair data              ... done (   0.001 sec)
 Shell pair data done in (   0.002 sec)
 Computing two index integrals           ... done
 Cholesky decomposition of the V-matrix  ... done


Timings:
 Total evaluation time                   ...   0.222 sec (  0.004 min)
 One electron matrix time                ...   0.016 sec (  0.000 min) =  7.1%
 Schwartz matrix evaluation time         ...   0.153 sec (  0.003 min) = 68.8%
 Two index repulsion integral time       ...   0.015 sec (  0.000 min) =  6.7%
 Cholesky decomposition of V             ...   0.014 sec (  0.000 min) =  6.3%
 Three index repulsion integral time     ...   0.000 sec (  0.000 min) =  0.0%

-------------------------------------------------------------------------------
                                 ORCA SCF
-------------------------------------------------------------------------------

------------
SCF SETTINGS
------------
Hamiltonian:
 Density Functional     Method          .... DFT(GTOs)
 Exchange Functional    Exchange        .... WB97X-D3
 Correlation Functional Correlation     .... WB97X-D3
 Gradients option       PostSCFGGA      .... off
 Hybrid DFT is turned on
   Fraction HF Exchange ScalHFX         ....  0.195728
   Scaling of DF-GGA-X  ScalDFX         ....  0.000000
   Scaling of DF-GGA-C  ScalDFC         ....  1.000000
   Scaling of DF-LDA-C  ScalLDAC        ....  1.000000
   Perturbative correction              ....  0.000000
 Long-range corrected/Screened/Range-Separated Hybrid DFT is turned on
   Amount of maximum screened exact exchange              ....  0.804272
   Range separation parameter mu (erf(mu*r12)/r12)        ....  0.250000
 RI-approximation to the Coulomb term is turned on
   Number of auxiliary basis functions  .... 635
   RIJ-COSX (HFX calculated with COS-X)).... on


General Settings:
 Integral files         IntName         .... /scratch/ch1tk/orca.15456/wB97XD3_def2-SVP_toluene_S0_TDA6S_2-80
 Hartree-Fock type      HFTyp           .... UHF
 Total Charge           Charge          ....    0
 Multiplicity           Mult            ....    1
 Number of Electrons    NEL             ....   50
 Basis Dimension        Dim             ....  128
 Nuclear Repulsion      ENuc            ....    266.3112559192 Eh

Convergence Acceleration:
 DIIS                   CNVDIIS         .... on
   Start iteration      DIISMaxIt       ....     0
   Startup error        DIISStart       ....  0.200000
   # of expansion vecs  DIISMaxEq       ....     5
   Bias factor          DIISBfac        ....   1.050
   Max. coefficient     DIISMaxC        ....  10.000
 Newton-Raphson         CNVNR           .... off
 SOSCF                  CNVSOSCF        .... off
 Level Shifting         CNVShift        .... on
   Level shift para.    LevelShift      ....    0.2500
   Turn off err/grad.   ShiftErr        ....    0.0000
 Zerner damping         CNVZerner       .... off
 Static damping         CNVDamp         .... on
   Fraction old density DampFac         ....    0.8500
   Max. Damping (<1)    DampMax         ....    0.9800
   Min. Damping (>=0)   DampMin         ....    0.0000
   Turn off err/grad.   DampErr         ....    0.0300
 Fernandez-Rico         CNVRico         .... off

SCF Procedure:
 Maximum # iterations   MaxIter         ....   500
 SCF integral mode      SCFMode         .... Direct
   Integral package                     .... LIBINT
 Reset frequeny         DirectResetFreq ....    20
 Integral Threshold     Thresh          ....  1.000e-10 Eh
 Primitive CutOff       TCut            ....  1.000e-11 Eh

Convergence Tolerance:
 Convergence Check Mode ConvCheckMode   .... Total+1el-Energy
 Convergence forced     ConvForced      .... 1
 Energy Change          TolE            ....  1.000e-06 Eh
 1-El. energy change                    ....  1.000e-03 Eh
 DIIS Error             TolErr          ....  1.000e-06


Diagonalization of the overlap matrix:
Smallest eigenvalue                        ... 2.791e-04
Time for diagonalization                   ...    0.004 sec
Threshold for overlap eigenvalues          ... 1.000e-08
Number of eigenvalues below threshold      ... 0
Time for construction of square roots      ...    0.001 sec
Total time needed                          ...    0.005 sec

-------------------
DFT GRID GENERATION
-------------------

General Integration Accuracy     IntAcc      ...  4.340
Radial Grid Type                 RadialGrid  ... Gauss-Chebyshev
Angular Grid (max. acc.)         AngularGrid ... Lebedev-110
Angular grid pruning method      GridPruning ... 3 (G Style)
Weight generation scheme         WeightScheme... Becke
Basis function cutoff            BFCut       ...    1.0000e-10
Integration weight cutoff        WCut        ...    1.0000e-14
Grids for H and He will be reduced by one unit

# of grid points (after initial pruning)     ...  16416 (   0.0 sec)
# of grid points (after weights+screening)   ...  15374 (   0.0 sec)
nearest neighbour list constructed           ...    0.0 sec
Grid point re-assignment to atoms done       ...    0.0 sec
Grid point division into batches done        ...    0.0 sec
Reduced shell lists constructed in    0.3 sec

Total number of grid points                  ...    15374
Total number of batches                      ...      245
Average number of points per batch           ...       62
Average number of grid points per atom       ...     1183
Average number of shells per batch           ...    43.63 (72.72%)
Average number of basis functions per batch  ...    92.80 (72.50%)
Average number of large shells per batch     ...    34.83 (79.82%)
Average number of large basis fcns per batch ...    73.34 (79.03%)
Maximum spatial batch extension              ...  22.52, 16.76, 25.60 au
Average spatial batch extension              ...   4.06,  3.57,  5.54 au

Time for grid setup =    0.310 sec

------------------------------
INITIAL GUESS: MODEL POTENTIAL
------------------------------
Loading Hartree-Fock densities                     ... done
Calculating cut-offs                               ... done
Setting up the integral package                    ... done
Initializing the effective Hamiltonian             ... done
Starting the Coulomb interaction                   ... done (   0.1 sec)
Reading the grid                                   ... done
Mapping shells                                     ... done
Starting the XC term evaluation                    ... done (   0.3 sec)
  promolecular density results
     # of electrons  =     50.000180882
     EX              =    -40.494202471
     EC              =     -1.630370396
     EX+EC           =    -42.124572867
Transforming the Hamiltonian                       ... done (   0.0 sec)
Diagonalizing the Hamiltonian                      ... done (   0.0 sec)
Back transforming the eigenvectors                 ... done (   0.0 sec)
Now organizing SCF variables                       ... done
                      ------------------
                      INITIAL GUESS DONE (   0.8 sec)
                      ------------------
--------------------
COSX GRID GENERATION
--------------------

General Integration Accuracy     IntAcc      ...  3.340
Radial Grid Type                 RadialGrid  ... Gauss-Chebyshev
Angular Grid (max. acc.)         AngularGrid ... Lebedev-50
Angular grid pruning method      GridPruning ... 3 (G Style)
Weight generation scheme         WeightScheme... Becke
Basis function cutoff            BFCut       ...    1.0000e-10
Integration weight cutoff        WCut        ...    1.0000e-14
Grids for H and He will be reduced by one unit

# of grid points (after initial pruning)     ...   5980 (   0.0 sec)
# of grid points (after weights+screening)   ...   5666 (   0.0 sec)
nearest neighbour list constructed           ...    0.0 sec
Grid point re-assignment to atoms done       ...    0.0 sec
Grid point division into batches done        ...    0.0 sec
Reduced shell lists constructed in    0.1 sec

Total number of grid points                  ...     5666
Total number of batches                      ...       94
Average number of points per batch           ...       60
Average number of grid points per atom       ...      436
Average number of shells per batch           ...    46.59 (77.65%)
Average number of basis functions per batch  ...   100.11 (78.21%)
Average number of large shells per batch     ...    38.36 (82.33%)
Average number of large basis fcns per batch ...    81.71 (81.62%)
Maximum spatial batch extension              ...  16.86, 14.62, 25.32 au
Average spatial batch extension              ...   4.89,  4.52,  7.47 au

Overlap Fitting                  UseSFitting ... on
Constructing numerical overlap ... done (      0.1 sec)
Inverting numerical overlap    ... done (      0.0 sec)
Obtaining analytic overlap     ... done (      0.0 sec)
Final contraction and storage  ... done (      0.0 sec)


General Integration Accuracy     IntAcc      ...  3.670
Radial Grid Type                 RadialGrid  ... Gauss-Chebyshev
Angular Grid (max. acc.)         AngularGrid ... Lebedev-50
Angular grid pruning method      GridPruning ... 3 (G Style)
Weight generation scheme         WeightScheme... Becke
Basis function cutoff            BFCut       ...    1.0000e-10
Integration weight cutoff        WCut        ...    1.0000e-14
Grids for H and He will be reduced by one unit

# of grid points (after initial pruning)     ...   7582 (   0.0 sec)
# of grid points (after weights+screening)   ...   7163 (   0.0 sec)
nearest neighbour list constructed           ...    0.0 sec
Grid point re-assignment to atoms done       ...    0.0 sec
Grid point division into batches done        ...    0.0 sec
Reduced shell lists constructed in    0.1 sec

Total number of grid points                  ...     7163
Total number of batches                      ...      116
Average number of points per batch           ...       61
Average number of grid points per atom       ...      551
Average number of shells per batch           ...    45.97 (76.61%)
Average number of basis functions per batch  ...    98.15 (76.68%)
Average number of large shells per batch     ...    37.25 (81.03%)
Average number of large basis fcns per batch ...    78.51 (79.99%)
Maximum spatial batch extension              ...  17.81, 15.26, 30.56 au
Average spatial batch extension              ...   4.63,  4.31,  7.26 au

Overlap Fitting                  UseSFitting ... on
Constructing numerical overlap ... done (      0.1 sec)
Inverting numerical overlap    ... done (      0.0 sec)
Obtaining analytic overlap     ... done (      0.0 sec)
Final contraction and storage  ... done (      0.0 sec)


General Integration Accuracy     IntAcc      ...  4.010
Radial Grid Type                 RadialGrid  ... Gauss-Chebyshev
Angular Grid (max. acc.)         AngularGrid ... Lebedev-110
Angular grid pruning method      GridPruning ... 3 (G Style)
Weight generation scheme         WeightScheme... Becke
Basis function cutoff            BFCut       ...    1.0000e-10
Integration weight cutoff        WCut        ...    1.0000e-14
Grids for H and He will be reduced by one unit

# of grid points (after initial pruning)     ...  14238 (   0.0 sec)
# of grid points (after weights+screening)   ...  13344 (   0.0 sec)
nearest neighbour list constructed           ...    0.0 sec
Grid point re-assignment to atoms done       ...    0.0 sec
Grid point division into batches done        ...    0.0 sec
Reduced shell lists constructed in    0.2 sec

Total number of grid points                  ...    13344
Total number of batches                      ...      214
Average number of points per batch           ...       62
Average number of grid points per atom       ...     1026
Average number of shells per batch           ...    44.19 (73.65%)
Average number of basis functions per batch  ...    93.96 (73.40%)
Average number of large shells per batch     ...    35.44 (80.20%)
Average number of large basis fcns per batch ...    74.42 (79.20%)
Maximum spatial batch extension              ...  21.45, 16.04, 31.02 au
Average spatial batch extension              ...   4.17,  3.65,  5.61 au

Overlap Fitting                  UseSFitting ... on
Constructing numerical overlap ... done (      0.1 sec)
Inverting numerical overlap    ... done (      0.0 sec)
Obtaining analytic overlap     ... done (      0.0 sec)
Final contraction and storage  ... done (      0.0 sec)

Time for X-Grid setup             =    0.787 sec
--------------
SCF ITERATIONS
--------------
ITER       Energy         Delta-E        Max-DP      RMS-DP      [F,P]     Damp
               ***  Starting incremental Fock matrix formation  ***
  0   -306.5000967442   0.000000000000 0.05421756  0.00108303  0.3175370 0.8500
  1   -306.6154552289  -0.115358484757 0.05114294  0.00101409  0.1882877 0.8500
                               ***Turning on DIIS***
  2   -306.6841605612  -0.068705332328 0.04129540  0.00082016  0.0923772 0.8500
  3   -306.7168350726  -0.032674511345 0.02231424  0.00057718  0.0565321 0.8500
  4   -306.7387001226  -0.021865049977 0.01381110  0.00041138  0.0427593 0.8500
  5   -306.7588708689  -0.020170746343 0.01180917  0.00031403  0.0333845 0.8500
  6   -306.7770432667  -0.018172397803 0.06500578  0.00170654  0.0271303 0.0000
  7   -306.8882411761  -0.111197909384 0.00175822  0.00003762  0.0572228 0.8500
  8   -306.8888652946  -0.000624118503 0.00353496  0.00006567  0.0512311 0.8500
  9   -306.8897410059  -0.000875711294 0.00282805  0.00005266  0.0392033 0.8500
 10   -306.8903103236  -0.000569317745 0.01353107  0.00025998  0.0299283 0.0000
 11   -306.8915956527  -0.001285329110 0.00236873  0.00006203  0.0131785 0.0000
 12   -306.8917891439  -0.000193491193 0.00087346  0.00003238  0.0036582 0.0000
 13   -306.8918203749  -0.000031230934 0.00041345  0.00001986  0.0007258 0.0000
               *** Restarting incremental Fock matrix formation ***
                                   *** Resetting DIIS ***
 14   -306.8918451950  -0.000024820169 0.00016915  0.00000915  0.0004611 0.0000
 15   -306.8918476293  -0.000002434226 0.00011926  0.00000550  0.0003348 0.0000
 16   -306.8918487507  -0.000001121394 0.00015663  0.00000603  0.0002490 0.0000
 17   -306.8918495963  -0.000000845632 0.00007020  0.00000261  0.0001188 0.0000
                 **** Energy Check signals convergence ****

               *****************************************************
               *                     SUCCESS                       *
               *           SCF CONVERGED AFTER  18 CYCLES          *
               *****************************************************


------------------------------------------------------------------------------
                          SCF STABILITY ANALYSIS                              
------------------------------------------------------------------------------


---------------
TD-DFT XC SETUP
---------------

DFT calculation                         ... on
Name of the grid file                   ... /scratch/ch1tk/orca.15456/wB97XD3_def2-SVP_toluene_S0_TDA6S_2-80.grid.tmp
Exchange functional (SCF)               ... WB97X-D3
Exchange functional (TD-DFT)            ... WB97X-D3
Correlation functional (SCF)            ... WB97X-D3
Correlation functional (TD-DFT)         ... WB97X-D3
Hybrid DFT                              ... on
   Exchange mixing (SCF)                ...  0.196
   Exchange mixing (TD-DFT)             ...  0.196
   GGA exch. scaling(SCF)               ...  0.000
   GGA exch. scaling (TD-DFT)           ...  0.000
   GGA corr. scaling (SCF)              ...  1.000
   GGA corr. scaling (TD-DFT)           ...  1.000
Range-Separated Exchange                ... on
   Range Range separation parameter mu  .... 0.250
   Max. amount of RS exchange (SCF)     ...  0.804
   Max. amount of RS exchange (TD-DFT)  ...  0.804

Electron density on the grid   ... found on disk
Building xc-kernel on the grid ... done
                    *** TD-DFT CALCULATION INITIALIZED ***

                       ****Iteration    0****

   Memory handling for direct AO based CIS:
   Memory per vector needed      ...     1 MB
   Memory needed                 ...     7 MB
   Memory available              ...  1024 MB
   Number of vectors per batch   ...   783
   Number of batches             ...     1
   Time for densities:     0.007
   Time for XC-Integration:     1.539
   Time for K (COSX):    10.693
   Time for RI-J (Direct):     1.615
   Time for Sigma-Completion:     0.030
   Lowest Energy          :    -0.166686920127
   Maximum Energy change  :     0.166686920127 (vector 0)
   Maximum residual norm  :     0.018661949369

                       ****Iteration    1****
   Time for densities:     0.004
   Time for XC-Integration:     0.869
   Time for K (COSX):    10.435
   Time for RI-J (Direct):     0.847
   Time for Sigma-Completion:     0.015
   Lowest Energy          :    -0.192435009694
   Maximum Energy change  :     0.025748089567 (vector 0)
   Maximum residual norm  :     0.000911429419

                       ****Iteration    2****
   Time for densities:     0.004
   Time for XC-Integration:     0.892
   Time for K (COSX):    10.484
   Time for RI-J (Direct):     0.874
   Time for Sigma-Completion:     0.015
   Lowest Energy          :    -0.192807189799
   Maximum Energy change  :     0.001823941493 (vector 1)
   Maximum residual norm  :     0.000075453856

      *** CONVERGENCE OF RESIDUAL NORM REACHED ***

----------------------------- 
SCF STABILITY ANALYSIS RESULT 
----------------------------- 

UHF/UKS->UHF/UKS - singlet - internal

   Root    Eigenvalue (au) 
     0      -0.192807 
     1      -0.060153 
     2      -0.027693 

Stability Analysis indicates an UNSTABLE HF/KS wave function with SEVERAL negative eigenvalues.

Since this is UHF/UKS, we will restart the SCF using a new guess based on the eigenvector 
associated with the lowest eigenvalue. Because there is no guarantee that the restart     
will result in a stable solution, the user should check the stability of the resulting    
wave function in a separate calculation using the MOREAD guess feature.

Obtain new guess               ... done 

Total time for performing the stability analysis:    38.363sec

--------------------------
SCF ITERATIONS (restarted)
--------------------------
ITER       Energy         Delta-E        Max-DP      RMS-DP      [F,P]     Damp
               ***  Starting incremental Fock matrix formation  ***
  0   -306.9229524865   0.000000000000 0.00413509  0.00008159  0.0101292 0.8500
  1   -306.9246586143  -0.001706127897 0.00529427  0.00011186  0.0089052 0.8500
                               ***Turning on DIIS***
  2   -306.9268315247  -0.002172910361 0.03900791  0.00081390  0.0079851 0.0000
  3   -306.9505485484  -0.023717023663 0.01711063  0.00034380  0.0051627 0.0000
  4   -306.9593292967  -0.008780748352 0.01443618  0.00030695  0.0050378 0.0000
  5   -306.9661006779  -0.006771381200 0.02574679  0.00052087  0.0045628 0.0000
  6   -306.9739309705  -0.007830292529 0.00727992  0.00012393  0.0042268 0.0000
  7   -306.9749952815  -0.001064311065 0.00833095  0.00015217  0.0032961 0.0000
  8   -306.9759625238  -0.000967242297 0.00383943  0.00006968  0.0050780 0.0000
  9   -306.9761603168  -0.000197793033 0.00775551  0.00013808  0.0020997 0.0000
 10   -306.9766272944  -0.000466977561 0.00383320  0.00006477  0.0025139 0.0000
 11   -306.9767380590  -0.000110764640 0.00246881  0.00004297  0.0010967 0.0000
 12   -306.9767736877  -0.000035628697 0.00100539  0.00001624  0.0006389 0.0000
 13   -306.9767798924  -0.000006204658 0.00048821  0.00000904  0.0003964 0.0000
 14   -306.9767816519  -0.000001759486 0.00030841  0.00000541  0.0002465 0.0000
                 **** Energy Check signals convergence ****

               *****************************************************
               *                     SUCCESS                       *
               *           SCF CONVERGED AFTER  15 CYCLES          *
               *****************************************************

Setting up the final grid:

General Integration Accuracy     IntAcc      ...  4.670
Radial Grid Type                 RadialGrid  ... Gauss-Chebyshev
Angular Grid (max. acc.)         AngularGrid ... Lebedev-302
Angular grid pruning method      GridPruning ... 3 (G Style)
Weight generation scheme         WeightScheme... Becke
Basis function cutoff            BFCut       ...    1.0000e-10
Integration weight cutoff        WCut        ...    1.0000e-14
Grids for H and He will be reduced by one unit

# of grid points (after initial pruning)     ...  63848 (   0.0 sec)
# of grid points (after weights+screening)   ...  59211 (   0.1 sec)
nearest neighbour list constructed           ...    0.0 sec
Grid point re-assignment to atoms done       ...    0.0 sec
Grid point division into batches done        ...    0.2 sec
Reduced shell lists constructed in    1.0 sec

Total number of grid points                  ...    59211
Total number of batches                      ...      931
Average number of points per batch           ...       63
Average number of grid points per atom       ...     4555
Average number of shells per batch           ...    39.62 (66.04%)
Average number of basis functions per batch  ...    83.66 (65.36%)
Average number of large shells per batch     ...    30.94 (78.08%)
Average number of large basis fcns per batch ...    64.50 (77.10%)
Maximum spatial batch extension              ...  15.78, 16.67, 24.37 au
Average spatial batch extension              ...   2.61,  2.49,  3.08 au

Final grid set up in    1.1 sec
Final integration                            ... done (   1.5 sec)
Change in XC energy                          ...     0.001008697
Integrated number of electrons               ...    49.999863228
Previous integrated no of electrons          ...    49.999519617
Old exchange energy                            =    -13.431043580 Eh
New exchange energy                            =    -13.431301393 Eh
Exchange energy change after final integration =     -0.000257813 Eh
Total energy after final integration           =   -306.976031288 Eh
Final COS-X integration done in                =     8.252 sec

----------------
TOTAL SCF ENERGY
----------------

Total Energy       :         -306.97603129 Eh           -8353.24248 eV

Components:
Nuclear Repulsion  :          266.31125592 Eh            7246.69769 eV
Electronic Energy  :         -573.28728721 Eh          -15599.94017 eV
One Electron Energy:         -941.95618804 Eh          -25631.93098 eV
Two Electron Energy:          368.66890083 Eh           10031.99081 eV

Virial components:
Potential Energy   :         -610.83339957 Eh          -16621.62183 eV
Kinetic Energy     :          303.85736828 Eh            8268.37935 eV
Virial Ratio       :            2.01026358


DFT components:
N(Alpha)           :       24.999902958451 electrons
N(Beta)            :       24.999960269330 electrons
N(Total)           :       49.999863227781 electrons
E(XC)              :      -29.670837064823 Eh       

---------------
SCF CONVERGENCE
---------------

  Last Energy change         ...   -5.1938e-07  Tolerance :   1.0000e-06
  Last MAX-Density change    ...    0.0000e+00  Tolerance :   1.0000e-05
  Last RMS-Density change    ...    0.0000e+00  Tolerance :   1.0000e-06
  Last DIIS Error            ...    1.5178e-04  Tolerance :   1.0000e-06

             **** THE GBW FILE WAS UPDATED (/scratch/ch1tk/orca.15456/wB97XD3_def2-SVP_toluene_S0_TDA6S_2-80.gbw) ****
             **** DENSITY FILE WAS UPDATED (/scratch/ch1tk/orca.15456/wB97XD3_def2-SVP_toluene_S0_TDA6S_2-80.scfp.tmp) ****
             **** ENERGY FILE WAS UPDATED (/scratch/ch1tk/orca.15456/wB97XD3_def2-SVP_toluene_S0_TDA6S_2-80.en.tmp) ****

     --------------------------------------------------------------------
                                      WARNING
     A stability analysis of the first UHF/UKS SCF solution was performed
     and an instability detected. The result was used as a guess for
     a second SCF, which has converged. There is no guarantee that the
     current solution is stable - it is up to you to rerun the stability
     analysis using the now stored solution as a guess and verify.
     --------------------------------------------------------------------

----------------------
UHF SPIN CONTAMINATION
----------------------

Warning: in a DFT calculation there is little theoretical justification to 
         calculate <S**2> as in Hartree-Fock theory. We will do it anyways
         but you should keep in mind that the values have only limited relevance

Expectation value of <S**2>     :     0.985917
Ideal value S*(S+1) for S=0.0   :     0.000000
Deviation                       :     0.985917

----------------
ORBITAL ENERGIES
----------------
                 SPIN UP ORBITALS
  NO   OCC          E(Eh)            E(eV) 
   0   1.0000     -19.306777      -525.3641 
   1   1.0000     -10.365814      -282.0681 
   2   1.0000     -10.307109      -280.4707 
   3   1.0000     -10.306790      -280.4620 
   4   1.0000     -10.304848      -280.4092 
   5   1.0000     -10.304459      -280.3986 
   6   1.0000     -10.295200      -280.1466 
   7   1.0000      -1.117280       -30.4027 
   8   1.0000      -0.969058       -26.3694 
   9   1.0000      -0.867957       -23.6183 
  10   1.0000      -0.842337       -22.9212 
  11   1.0000      -0.725594       -19.7444 
  12   1.0000      -0.699589       -19.0368 
  13   1.0000      -0.626103       -17.0371 
  14   1.0000      -0.572992       -15.5919 
  15   1.0000      -0.569569       -15.4988 
  16   1.0000      -0.535701       -14.5772 
  17   1.0000      -0.530810       -14.4441 
  18   1.0000      -0.524310       -14.2672 
  19   1.0000      -0.464727       -12.6459 
  20   1.0000      -0.453545       -12.3416 
  21   1.0000      -0.444563       -12.0972 
  22   1.0000      -0.414872       -11.2892 
  23   1.0000      -0.354052        -9.6342 
  24   1.0000      -0.315127        -8.5751 
  25   0.0000      -0.078710        -2.1418 
  26   0.0000       0.058233         1.5846 
  27   0.0000       0.075983         2.0676 
  28   0.0000       0.145432         3.9574 
  29   0.0000       0.184449         5.0191 
  30   0.0000       0.201975         5.4960 
  31   0.0000       0.232003         6.3131 
  32   0.0000       0.238853         6.4995 
  33   0.0000       0.245393         6.6775 
  34   0.0000       0.291380         7.9289 
  35   0.0000       0.348164         9.4740 
  36   0.0000       0.370456        10.0806 
  37   0.0000       0.382366        10.4047 
  38   0.0000       0.411386        11.1944 
  39   0.0000       0.441625        12.0172 
  40   0.0000       0.495975        13.4962 
  41   0.0000       0.496134        13.5005 
  42   0.0000       0.518806        14.1174 
  43   0.0000       0.530614        14.4387 
  44   0.0000       0.556137        15.1333 
  45   0.0000       0.559233        15.2175 
  46   0.0000       0.581625        15.8268 
  47   0.0000       0.600220        16.3328 
  48   0.0000       0.626685        17.0530 
  49   0.0000       0.630333        17.1522 
  50   0.0000       0.632502        17.2113 
  51   0.0000       0.673556        18.3284 
  52   0.0000       0.694504        18.8984 
  53   0.0000       0.702622        19.1193 
  54   0.0000       0.729435        19.8489 
  55   0.0000       0.743007        20.2182 
  56   0.0000       0.764897        20.8139 
  57   0.0000       0.779367        21.2077 
  58   0.0000       0.804504        21.8917 
  59   0.0000       0.813124        22.1262 
  60   0.0000       0.830393        22.5961 
  61   0.0000       0.836571        22.7643 
  62   0.0000       0.866023        23.5657 
  63   0.0000       0.892659        24.2905 
  64   0.0000       0.907777        24.7019 
  65   0.0000       0.960948        26.1487 
  66   0.0000       1.012605        27.5544 
  67   0.0000       1.090739        29.6805 
  68   0.0000       1.106332        30.1048 
  69   0.0000       1.162132        31.6232 
  70   0.0000       1.252705        34.0878 
  71   0.0000       1.271754        34.6062 
  72   0.0000       1.309559        35.6349 
  73   0.0000       1.325149        36.0591 
  74   0.0000       1.329312        36.1724 
  75   0.0000       1.365905        37.1682 
  76   0.0000       1.367638        37.2153 
  77   0.0000       1.389322        37.8054 
  78   0.0000       1.451659        39.5017 
  79   0.0000       1.469795        39.9952 
  80   0.0000       1.500463        40.8297 
  81   0.0000       1.533101        41.7178 
  82   0.0000       1.578168        42.9441 
  83   0.0000       1.599667        43.5292 
  84   0.0000       1.745190        47.4890 
  85   0.0000       1.753874        47.7253 
  86   0.0000       1.781961        48.4896 
  87   0.0000       1.824927        49.6588 
  88   0.0000       1.835772        49.9539 
  89   0.0000       1.837151        49.9914 
  90   0.0000       1.856301        50.5125 
  91   0.0000       1.877243        51.0824 
  92   0.0000       1.885442        51.3055 
  93   0.0000       1.890713        51.4489 
  94   0.0000       1.926259        52.4162 
  95   0.0000       1.986968        54.0682 
  96   0.0000       2.037437        55.4415 
  97   0.0000       2.067403        56.2569 
  98   0.0000       2.074369        56.4464 
  99   0.0000       2.130346        57.9697 
 100   0.0000       2.188914        59.5634 
 101   0.0000       2.224015        60.5185 
 102   0.0000       2.232343        60.7451 
 103   0.0000       2.281125        62.0726 
 104   0.0000       2.304524        62.7093 
 105   0.0000       2.353407        64.0395 
 106   0.0000       2.357197        64.1426 
 107   0.0000       2.397031        65.2265 
 108   0.0000       2.432976        66.2046 
 109   0.0000       2.437099        66.3168 
 110   0.0000       2.595427        70.6252 
 111   0.0000       2.633825        71.6700 
 112   0.0000       2.673487        72.7493 
 113   0.0000       2.681377        72.9640 
 114   0.0000       2.732285        74.3493 
 115   0.0000       2.788554        75.8804 
 116   0.0000       2.798837        76.1602 
 117   0.0000       2.818414        76.6930 
 118   0.0000       2.821772        76.7843 
 119   0.0000       2.943612        80.0998 
 120   0.0000       2.971609        80.8616 
 121   0.0000       3.061347        83.3035 
 122   0.0000       3.096081        84.2486 
 123   0.0000       3.115013        84.7638 
 124   0.0000       3.246018        88.3287 
 125   0.0000       3.447245        93.8043 
 126   0.0000       3.485972        94.8581 
 127   0.0000       3.782682       102.9320 

                 SPIN DOWN ORBITALS
  NO   OCC          E(Eh)            E(eV) 
   0   1.0000     -19.325695      -525.8789 
   1   1.0000     -10.365530      -282.0604 
   2   1.0000     -10.307255      -280.4747 
   3   1.0000     -10.306870      -280.4642 
   4   1.0000     -10.305638      -280.4307 
   5   1.0000     -10.305506      -280.4271 
   6   1.0000     -10.295119      -280.1444 
   7   1.0000      -1.173576       -31.9346 
   8   1.0000      -0.974462       -26.5164 
   9   1.0000      -0.870105       -23.6768 
  10   1.0000      -0.850740       -23.1498 
  11   1.0000      -0.733638       -19.9633 
  12   1.0000      -0.705767       -19.2049 
  13   1.0000      -0.632598       -17.2139 
  14   1.0000      -0.596933       -16.2434 
  15   1.0000      -0.580492       -15.7960 
  16   1.0000      -0.543116       -14.7789 
  17   1.0000      -0.536014       -14.5857 
  18   1.0000      -0.532110       -14.4795 
  19   1.0000      -0.499265       -13.5857 
  20   1.0000      -0.467325       -12.7166 
  21   1.0000      -0.454519       -12.3681 
  22   1.0000      -0.440951       -11.9989 
  23   1.0000      -0.354437        -9.6447 
  24   1.0000      -0.323156        -8.7935 
  25   0.0000       0.057399         1.5619 
  26   0.0000       0.074711         2.0330 
  27   0.0000       0.122109         3.3228 
  28   0.0000       0.150375         4.0919 
  29   0.0000       0.187796         5.1102 
  30   0.0000       0.206691         5.6243 
  31   0.0000       0.232067         6.3149 
  32   0.0000       0.244904         6.6642 
  33   0.0000       0.256809         6.9881 
  34   0.0000       0.294428         8.0118 
  35   0.0000       0.352477         9.5914 
  36   0.0000       0.370217        10.0741 
  37   0.0000       0.381689        10.3863 
  38   0.0000       0.406753        11.0683 
  39   0.0000       0.440235        11.9794 
  40   0.0000       0.494703        13.4615 
  41   0.0000       0.495777        13.4908 
  42   0.0000       0.519208        14.1284 
  43   0.0000       0.531494        14.4627 
  44   0.0000       0.555714        15.1218 
  45   0.0000       0.578284        15.7359 
  46   0.0000       0.591125        16.0853 
  47   0.0000       0.623273        16.9601 
  48   0.0000       0.626062        17.0360 
  49   0.0000       0.631956        17.1964 
  50   0.0000       0.665331        18.1046 
  51   0.0000       0.693852        18.8807 
  52   0.0000       0.702458        19.1149 
  53   0.0000       0.728183        19.8149 
  54   0.0000       0.743584        20.2339 
  55   0.0000       0.767385        20.8816 
  56   0.0000       0.778915        21.1954 
  57   0.0000       0.801037        21.7973 
  58   0.0000       0.810961        22.0674 
  59   0.0000       0.824776        22.4433 
  60   0.0000       0.833923        22.6922 
  61   0.0000       0.846016        23.0213 
  62   0.0000       0.869361        23.6565 
  63   0.0000       0.899921        24.4881 
  64   0.0000       0.912623        24.8337 
  65   0.0000       0.964565        26.2472 
  66   0.0000       1.011132        27.5143 
  67   0.0000       1.076835        29.3022 
  68   0.0000       1.103428        30.0258 
  69   0.0000       1.153844        31.3977 
  70   0.0000       1.218714        33.1629 
  71   0.0000       1.270968        34.5848 
  72   0.0000       1.306742        35.5582 
  73   0.0000       1.323622        36.0176 
  74   0.0000       1.329077        36.1660 
  75   0.0000       1.365246        37.1502 
  76   0.0000       1.365788        37.1650 
  77   0.0000       1.388963        37.7956 
  78   0.0000       1.531469        41.6734 
  79   0.0000       1.564494        42.5720 
  80   0.0000       1.587113        43.1875 
  81   0.0000       1.740359        47.3576 
  82   0.0000       1.750886        47.6440 
  83   0.0000       1.781481        48.4766 
  84   0.0000       1.786579        48.6153 
  85   0.0000       1.797810        48.9209 
  86   0.0000       1.824037        49.6346 
  87   0.0000       1.833372        49.8886 
  88   0.0000       1.835657        49.9508 
  89   0.0000       1.842165        50.1279 
  90   0.0000       1.868845        50.8538 
  91   0.0000       1.881438        51.1965 
  92   0.0000       1.889987        51.4292 
  93   0.0000       1.891467        51.4694 
  94   0.0000       1.949234        53.0413 
  95   0.0000       1.984646        54.0050 
  96   0.0000       2.037376        55.4398 
  97   0.0000       2.066989        56.2456 
  98   0.0000       2.074144        56.4403 
  99   0.0000       2.127045        57.8798 
 100   0.0000       2.188360        59.5483 
 101   0.0000       2.223428        60.5026 
 102   0.0000       2.234794        60.8118 
 103   0.0000       2.278990        62.0145 
 104   0.0000       2.302363        62.6505 
 105   0.0000       2.348320        63.9010 
 106   0.0000       2.350435        63.9586 
 107   0.0000       2.396093        65.2010 
 108   0.0000       2.432094        66.1806 
 109   0.0000       2.435331        66.2687 
 110   0.0000       2.594462        70.5989 
 111   0.0000       2.614635        71.1478 
 112   0.0000       2.627664        71.5024 
 113   0.0000       2.654013        72.2194 
 114   0.0000       2.723404        74.1076 
 115   0.0000       2.728791        74.2542 
 116   0.0000       2.767403        75.3049 
 117   0.0000       2.818233        76.6880 
 118   0.0000       2.820654        76.7539 
 119   0.0000       2.940984        80.0282 
 120   0.0000       2.970424        80.8294 
 121   0.0000       3.046980        82.9125 
 122   0.0000       3.087310        84.0100 
 123   0.0000       3.106409        84.5297 
 124   0.0000       3.240495        88.1783 
 125   0.0000       3.422873        93.1411 
 126   0.0000       3.461962        94.2048 
 127   0.0000       3.774959       102.7219 

                    ********************************
                    * MULLIKEN POPULATION ANALYSIS *
                    ********************************

--------------------------------------------
MULLIKEN ATOMIC CHARGES AND SPIN POPULATIONS
--------------------------------------------
   0 C :   -0.007716   -0.006056
   1 C :   -0.069730   -0.043323
   2 C :    0.188319    0.047708
   3 C :   -0.077352   -0.034058
   4 C :   -0.009601   -0.003971
   5 C :   -0.031867    0.009348
   6 H :    0.030975   -0.003145
   7 H :    0.027581    0.000429
   8 H :    0.021877    0.001355
   9 H :    0.029786   -0.002471
  10 H :    0.023819   -0.000275
  11 O :   -0.135849   -0.950252
  12 H :    0.009758    0.984711
Sum of atomic charges         :   -0.0000000
Sum of atomic spin populations:    0.0000000

-----------------------------------------------------
MULLIKEN REDUCED ORBITAL CHARGES AND SPIN POPULATIONS
-----------------------------------------------------
CHARGE
  0 C s       :     3.149249  s :     3.149249
      pz      :     0.964438  p :     2.822341
      px      :     0.921721
      py      :     0.936181
      dz2     :     0.002566  d :     0.036126
      dxz     :     0.003847
      dyz     :     0.006747
      dx2y2   :     0.011172
      dxy     :     0.011795
  1 C s       :     3.200207  s :     3.200207
      pz      :     1.065115  p :     2.836493
      px      :     0.877503
      py      :     0.893875
      dz2     :     0.002722  d :     0.033029
      dxz     :     0.003476
      dyz     :     0.005460
      dx2y2   :     0.008651
      dxy     :     0.012721
  2 C s       :     2.958854  s :     2.958854
      pz      :     0.963671  p :     2.778775
      px      :     1.031113
      py      :     0.783991
      dz2     :     0.005581  d :     0.074053
      dxz     :     0.007754
      dyz     :     0.019728
      dx2y2   :     0.025157
      dxy     :     0.015833
  3 C s       :     3.201428  s :     3.201428
      pz      :     1.068892  p :     2.842892
      px      :     0.873880
      py      :     0.900120
      dz2     :     0.002714  d :     0.033033
      dxz     :     0.003642
      dyz     :     0.005286
      dx2y2   :     0.008922
      dxy     :     0.012469
  4 C s       :     3.151105  s :     3.151105
      pz      :     0.964300  p :     2.822304
      px      :     0.916519
      py      :     0.941485
      dz2     :     0.002575  d :     0.036192
      dxz     :     0.003696
      dyz     :     0.006905
      dx2y2   :     0.011438
      dxy     :     0.011578
  5 C s       :     3.144713  s :     3.144713
      pz      :     1.026758  p :     2.852806
      px      :     0.954616
      py      :     0.871432
      dz2     :     0.002558  d :     0.034349
      dxz     :     0.006226
      dyz     :     0.002559
      dx2y2   :     0.012394
      dxy     :     0.010612
  6 H s       :     0.946406  s :     0.946406
      pz      :     0.004404  p :     0.022618
      px      :     0.011739
      py      :     0.006475
  7 H s       :     0.949447  s :     0.949447
      pz      :     0.004884  p :     0.022972
      px      :     0.012041
      py      :     0.006047
  8 H s       :     0.955008  s :     0.955008
      pz      :     0.004889  p :     0.023114
      px      :     0.011772
      py      :     0.006453
  9 H s       :     0.947661  s :     0.947661
      pz      :     0.004405  p :     0.022553
      px      :     0.012247
      py      :     0.005902
 10 H s       :     0.953167  s :     0.953167
      pz      :     0.004812  p :     0.023014
      px      :     0.003044
      py      :     0.015159
 11 O s       :     3.857007  s :     3.857007
      pz      :     1.845104  p :     4.266831
      px      :     1.039255
      py      :     1.382472
      dz2     :     0.001649  d :     0.012012
      dxz     :     0.000028
      dyz     :     0.002971
      dx2y2   :     0.004936
      dxy     :     0.002427
 12 H s       :     0.990088  s :     0.990088
      pz      :     0.000003  p :     0.000154
      px      :     0.000077
      py      :     0.000074

SPIN
  0 C s       :    -0.000630  s :    -0.000630
      pz      :    -0.000332  p :    -0.005323
      px      :     0.000235
      py      :    -0.005226
      dz2     :    -0.000007  d :    -0.000103
      dxz     :     0.000031
      dyz     :     0.000081
      dx2y2   :    -0.000026
      dxy     :    -0.000182
  1 C s       :    -0.013921  s :    -0.013921
      pz      :     0.002546  p :    -0.029239
      px      :    -0.017632
      py      :    -0.014154
      dz2     :    -0.000041  d :    -0.000163
      dxz     :    -0.000105
      dyz     :    -0.000002
      dx2y2   :     0.000109
      dxy     :    -0.000123
  2 C s       :     0.012354  s :     0.012354
      pz      :     0.001309  p :     0.044957
      px      :     0.018790
      py      :     0.024858
      dz2     :    -0.000058  d :    -0.009603
      dxz     :    -0.000063
      dyz     :     0.000518
      dx2y2   :    -0.000026
      dxy     :    -0.009974
  3 C s       :    -0.009482  s :    -0.009482
      pz      :     0.004113  p :    -0.024508
      px      :    -0.017806
      py      :    -0.010815
      dz2     :    -0.000043  d :    -0.000068
      dxz     :    -0.000105
      dyz     :    -0.000004
      dx2y2   :     0.000158
      dxy     :    -0.000074
  4 C s       :    -0.000306  s :    -0.000306
      pz      :    -0.000365  p :    -0.003606
      px      :    -0.000112
      py      :    -0.003129
      dz2     :    -0.000004  d :    -0.000058
      dxz     :     0.000028
      dyz     :     0.000099
      dx2y2   :    -0.000023
      dxy     :    -0.000158
  5 C s       :     0.000997  s :     0.000997
      pz      :     0.007630  p :     0.008396
      px      :     0.000550
      py      :     0.000217
      dz2     :    -0.000021  d :    -0.000045
      dxz     :     0.000018
      dyz     :    -0.000013
      dx2y2   :     0.000025
      dxy     :    -0.000054
  6 H s       :    -0.003161  s :    -0.003161
      pz      :    -0.000005  p :     0.000016
      px      :    -0.000011
      py      :     0.000032
  7 H s       :     0.000431  s :     0.000431
      pz      :     0.000033  p :    -0.000002
      px      :    -0.000066
      py      :     0.000031
  8 H s       :     0.001076  s :     0.001076
      pz      :     0.000043  p :     0.000278
      px      :     0.000045
      py      :     0.000191
  9 H s       :    -0.002485  s :    -0.002485
      pz      :    -0.000005  p :     0.000015
      px      :    -0.000005
      py      :     0.000025
 10 H s       :    -0.000332  s :    -0.000332
      pz      :     0.000053  p :     0.000057
      px      :     0.000001
      py      :     0.000003
 11 O s       :    -0.019316  s :    -0.019316
      pz      :    -0.015506  p :    -0.930816
      px      :    -0.893785
      py      :    -0.021525
      dz2     :    -0.000133  d :    -0.000120
      dxz     :    -0.000001
      dyz     :     0.000004
      dx2y2   :     0.000110
      dxy     :    -0.000100
 12 H s       :     0.984754  s :     0.984754
      pz      :     0.000001  p :    -0.000043
      px      :    -0.000032
      py      :    -0.000012


                     *******************************
                     * LOEWDIN POPULATION ANALYSIS *
                     *******************************

-------------------------------------------
LOEWDIN ATOMIC CHARGES AND SPIN POPULATIONS
-------------------------------------------
   0 C :   -0.012008   -0.004560
   1 C :   -0.063445   -0.034926
   2 C :    0.022348   -0.001718
   3 C :   -0.068973   -0.025308
   4 C :   -0.012303   -0.002157
   5 C :   -0.058409    0.007322
   6 H :    0.038183   -0.002319
   7 H :    0.038867    0.000536
   8 H :    0.035420    0.004318
   9 H :    0.038160   -0.001934
  10 H :    0.033001    0.000128
  11 O :   -0.001470   -0.918656
  12 H :    0.010629    0.979274

----------------------------------------------------
LOEWDIN REDUCED ORBITAL CHARGES AND SPIN POPULATIONS
----------------------------------------------------
CHARGE
  0 C s       :     2.858166  s :     2.858166
      pz      :     0.949133  p :     3.061401
      px      :     1.054343
      py      :     1.057925
      dz2     :     0.005974  d :     0.092441
      dxz     :     0.007201
      dyz     :     0.013853
      dx2y2   :     0.031830
      dxy     :     0.033581
  1 C s       :     2.856716  s :     2.856716
      pz      :     1.039425  p :     3.119526
      px      :     1.027206
      py      :     1.052895
      dz2     :     0.006436  d :     0.087204
      dxz     :     0.006091
      dyz     :     0.011128
      dx2y2   :     0.027134
      dxy     :     0.036413
  2 C s       :     2.849654  s :     2.849654
      pz      :     0.950333  p :     2.958740
      px      :     1.099290
      py      :     0.909117
      dz2     :     0.012121  d :     0.169258
      dxz     :     0.015392
      dyz     :     0.037028
      dx2y2   :     0.061712
      dxy     :     0.043005
  3 C s       :     2.857727  s :     2.857727
      pz      :     1.043238  p :     3.124220
      px      :     1.025247
      py      :     1.055735
      dz2     :     0.006432  d :     0.087026
      dxz     :     0.006440
      dyz     :     0.010713
      dx2y2   :     0.027710
      dxy     :     0.035731
  4 C s       :     2.858079  s :     2.858079
      pz      :     0.948737  p :     3.061670
      px      :     1.053868
      py      :     1.059065
      dz2     :     0.005990  d :     0.092554
      dxz     :     0.006826
      dyz     :     0.014276
      dx2y2   :     0.032578
      dxy     :     0.032884
  5 C s       :     2.855884  s :     2.855884
      pz      :     1.007421  p :     3.113018
      px      :     1.063850
      py      :     1.041747
      dz2     :     0.006086  d :     0.089507
      dxz     :     0.013058
      dyz     :     0.004160
      dx2y2   :     0.035270
      dxy     :     0.030933
  6 H s       :     0.895397  s :     0.895397
      pz      :     0.013381  p :     0.066420
      px      :     0.033881
      py      :     0.019157
  7 H s       :     0.891992  s :     0.891992
      pz      :     0.015767  p :     0.069141
      px      :     0.035005
      py      :     0.018369
  8 H s       :     0.895479  s :     0.895479
      pz      :     0.015717  p :     0.069101
      px      :     0.034190
      py      :     0.019193
  9 H s       :     0.895429  s :     0.895429
      pz      :     0.013390  p :     0.066411
      px      :     0.035210
      py      :     0.017811
 10 H s       :     0.899356  s :     0.899356
      pz      :     0.015004  p :     0.067644
      px      :     0.010801
      py      :     0.041839
 11 O s       :     3.654073  s :     3.654073
      pz      :     1.838156  p :     4.327749
      px      :     1.036386
      py      :     1.453208
      dz2     :     0.002835  d :     0.019648
      dxz     :     0.000034
      dyz     :     0.004094
      dx2y2   :     0.008709
      dxy     :     0.003976
 12 H s       :     0.989189  s :     0.989189
      pz      :     0.000003  p :     0.000182
      px      :     0.000086
      py      :     0.000093

SPIN
  0 C s       :    -0.001087  s :    -0.001087
      pz      :    -0.000119  p :    -0.003237
      px      :    -0.000009
      py      :    -0.003109
      dz2     :    -0.000025  d :    -0.000236
      dxz     :     0.000081
      dyz     :     0.000184
      dx2y2   :     0.000020
      dxy     :    -0.000497
  1 C s       :    -0.008970  s :    -0.008970
      pz      :     0.002225  p :    -0.025844
      px      :    -0.013852
      py      :    -0.014217
      dz2     :    -0.000089  d :    -0.000112
      dxz     :    -0.000119
      dyz     :    -0.000028
      dx2y2   :     0.000066
      dxy     :     0.000058
  2 C s       :     0.005847  s :     0.005847
      pz      :     0.000590  p :     0.015761
      px      :    -0.003835
      py      :     0.019006
      dz2     :    -0.000391  d :    -0.023326
      dxz     :    -0.000101
      dyz     :     0.000740
      dx2y2   :    -0.001002
      dxy     :    -0.022572
  3 C s       :    -0.006445  s :    -0.006445
      pz      :     0.003613  p :    -0.019037
      px      :    -0.013842
      py      :    -0.008807
      dz2     :    -0.000075  d :     0.000173
      dxz     :    -0.000121
      dyz     :    -0.000025
      dx2y2   :     0.000297
      dxy     :     0.000098
  4 C s       :    -0.000552  s :    -0.000552
      pz      :    -0.000123  p :    -0.001442
      px      :    -0.000112
      py      :    -0.001207
      dz2     :    -0.000015  d :    -0.000163
      dxz     :     0.000072
      dyz     :     0.000221
      dx2y2   :    -0.000002
      dxy     :    -0.000438
  5 C s       :     0.000320  s :     0.000320
      pz      :     0.006932  p :     0.007140
      px      :     0.000025
      py      :     0.000183
      dz2     :    -0.000022  d :    -0.000138
      dxz     :     0.000039
      dyz     :    -0.000019
      dx2y2   :     0.000045
      dxy     :    -0.000181
  6 H s       :    -0.002261  s :    -0.002261
      pz      :    -0.000012  p :    -0.000058
      px      :     0.000012
      py      :    -0.000058
  7 H s       :     0.000892  s :     0.000892
      pz      :     0.000126  p :    -0.000356
      px      :    -0.000589
      py      :     0.000107
  8 H s       :     0.003765  s :     0.003765
      pz      :     0.000162  p :     0.000552
      px      :    -0.000112
      py      :     0.000502
  9 H s       :    -0.001930  s :    -0.001930
      pz      :    -0.000011  p :    -0.000005
      px      :     0.000020
      py      :    -0.000014
 10 H s       :    -0.000117  s :    -0.000117
      pz      :     0.000196  p :     0.000245
      px      :     0.000019
      py      :     0.000030
 11 O s       :    -0.012009  s :    -0.012009
      pz      :    -0.014504  p :    -0.906812
      px      :    -0.875360
      py      :    -0.016949
      dz2     :     0.000056  d :     0.000165
      dxz     :    -0.000001
      dyz     :     0.000002
      dx2y2   :     0.000017
      dxy     :     0.000092
 12 H s       :     0.979338  s :     0.979338
      pz      :     0.000001  p :    -0.000064
      px      :    -0.000044
      py      :    -0.000021


                      *****************************
                      * MAYER POPULATION ANALYSIS *
                      *****************************

  NA   - Mulliken gross atomic population
  ZA   - Total nuclear charge
  QA   - Mulliken gross atomic charge
  VA   - Mayer's total valence
  BVA  - Mayer's bonded valence
  FA   - Mayer's free valence

  ATOM       NA         ZA         QA         VA         BVA        FA
  0 C      6.0077     6.0000    -0.0077     3.8830     3.8830     0.0000
  1 C      6.0697     6.0000    -0.0697     3.8875     3.8853     0.0022
  2 C      5.8117     6.0000     0.1883     3.9387     3.9355     0.0032
  3 C      6.0774     6.0000    -0.0774     3.8817     3.8799     0.0018
  4 C      6.0096     6.0000    -0.0096     3.8878     3.8878     0.0000
  5 C      6.0319     6.0000    -0.0319     3.8565     3.8565     0.0001
  6 H      0.9690     1.0000     0.0310     0.9851     0.9851     0.0000
  7 H      0.9724     1.0000     0.0276     0.9949     0.9949     0.0000
  8 H      0.9781     1.0000     0.0219     1.0003     1.0003     0.0000
  9 H      0.9702     1.0000     0.0298     0.9850     0.9850     0.0000
 10 H      0.9762     1.0000     0.0238     0.9854     0.9854     0.0000
 11 O      8.1358     8.0000    -0.1358     2.1645     1.3470     0.8175
 12 H      0.9902     1.0000     0.0098     1.0017     0.0307     0.9710

  Mayer bond orders larger than 0.1
B(  0-C ,  1-C ) :   1.4053 B(  0-C ,  5-C ) :   1.3913 B(  0-C ,  6-H ) :   0.9854 
B(  1-C ,  2-C ) :   1.3336 B(  1-C ,  7-H ) :   0.9922 B(  2-C ,  3-C ) :   1.3360 
B(  2-C , 11-O ) :   1.1676 B(  3-C ,  4-C ) :   1.3956 B(  3-C ,  8-H ) :   0.9936 
B(  4-C ,  5-C ) :   1.4023 B(  4-C ,  9-H ) :   0.9858 B(  5-C , 10-H ) :   0.9917 


-------
TIMINGS
-------

Total SCF time: 0 days 0 hours 3 min 30 sec 

Total time                  ....     210.265 sec
Sum of individual times     ....     210.046 sec  ( 99.9%)

Fock matrix formation       ....     168.641 sec  ( 80.2%)
  Split-RI-J                ....      13.111 sec  (  7.8% of F)
  Chain of spheres X        ....     140.757 sec  ( 83.5% of F)
  COS-X 1 center corr.      ....       0.000 sec  (  0.0% of F)
  XC integration            ....      14.698 sec  (  8.7% of F)
    Basis function eval.    ....       5.528 sec  ( 37.6% of XC)
    Density eval.           ....       2.227 sec  ( 15.2% of XC)
    XC-Functional eval.     ....       2.326 sec  ( 15.8% of XC)
    XC-Potential eval.      ....       4.442 sec  ( 30.2% of XC)
Diagonalization             ....       0.231 sec  (  0.1%)
Density matrix formation    ....       0.014 sec  (  0.0%)
Population analysis         ....       0.009 sec  (  0.0%)
Initial guess               ....       0.486 sec  (  0.2%)
Orbital Transformation      ....       0.000 sec  (  0.0%)
Orbital Orthonormalization  ....       0.000 sec  (  0.0%)
DIIS solution               ....       0.058 sec  (  0.0%)
Grid generation             ....       2.244 sec  (  1.1%)
SCF Stability Analysis      ....      38.363 sec  ( 18.2%)
------------------------------------------------------------------------------
                        ORCA TD-DFT/TDA CALCULATION
------------------------------------------------------------------------------

Input orbitals are from        ... /scratch/ch1tk/orca.15456/wB97XD3_def2-SVP_toluene_S0_TDA6S_2-80.gbw
CI-vector output               ... /scratch/ch1tk/orca.15456/wB97XD3_def2-SVP_toluene_S0_TDA6S_2-80.cis
Tamm-Dancoff approximation     ... operative
CIS-Integral strategy          ... AO-integrals
Integral handling              ... AO integral Direct
Max. core memory used          ... 512 MB
Reference state                ... UHF
Number of operators            ... 2
Orbital ranges used for CIS calculation:
 Operator 0:  Orbitals   7... 24  to  25...127
 Operator 1:  Orbitals   7... 24  to  25...127
XAS localization array:
 Operator 0:  Orbitals  -1... -1
 Operator 1:  Orbitals  -1... -1
-------------------
XC-INTEGRATION GRID
-------------------

General Integration Accuracy     IntAcc      ...  3.670
Radial Grid Type                 RadialGrid  ... Gauss-Chebyshev
Angular Grid (max. acc.)         AngularGrid ... Lebedev-50
Angular grid pruning method      GridPruning ... 3 (G Style)
Weight generation scheme         WeightScheme... Becke
Basis function cutoff            BFCut       ...    1.0000e-10
Integration weight cutoff        WCut        ...    1.0000e-14
Grids for H and He will be reduced by one unit

# of grid points (after initial pruning)     ...   7582 (   0.0 sec)
# of grid points (after weights+screening)   ...   7163 (   0.0 sec)
nearest neighbour list constructed           ...    0.0 sec
Grid point re-assignment to atoms done       ...    0.0 sec
Grid point division into batches done        ...    0.0 sec
Reduced shell lists constructed in    0.1 sec

Total number of grid points                  ...     7163
Total number of batches                      ...      116
Average number of points per batch           ...       61
Average number of grid points per atom       ...      551
Average number of shells per batch           ...    45.97 (76.61%)
Average number of basis functions per batch  ...    98.15 (76.68%)
Average number of large shells per batch     ...    37.25 (81.03%)
Average number of large basis fcns per batch ...    78.51 (79.99%)
Maximum spatial batch extension              ...  17.81, 15.26, 30.56 au
Average spatial batch extension              ...   4.63,  4.31,  7.26 au

---------------------
COSX-INTEGRATION GRID
---------------------

General Integration Accuracy     IntAcc      ...  2.670
Radial Grid Type                 RadialGrid  ... Gauss-Chebyshev
Angular Grid (max. acc.)         AngularGrid ... Lebedev-50
Angular grid pruning method      GridPruning ... 3 (G Style)
Weight generation scheme         WeightScheme... Becke
Basis function cutoff            BFCut       ...    1.0000e-10
Integration weight cutoff        WCut        ...    1.0000e-14
Grids for H and He will be reduced by one unit

# of grid points (after initial pruning)     ...   4338 (   0.0 sec)
# of grid points (after weights+screening)   ...   4115 (   0.0 sec)
nearest neighbour list constructed           ...    0.0 sec
Grid point re-assignment to atoms done       ...    0.0 sec
Grid point division into batches done        ...    0.0 sec
Reduced shell lists constructed in    0.1 sec

Total number of grid points                  ...     4115
Total number of batches                      ...       72
Average number of points per batch           ...       57
Average number of grid points per atom       ...      317
Average number of shells per batch           ...    46.55 (77.58%)
Average number of basis functions per batch  ...    99.97 (78.10%)
Average number of large shells per batch     ...    37.60 (80.78%)
Average number of large basis fcns per batch ...    79.74 (79.76%)
Maximum spatial batch extension              ...  13.79, 12.73, 29.42 au
Average spatial batch extension              ...   4.89,  4.51,  7.26 au


---------------
TD-DFT XC SETUP
---------------

DFT calculation                         ... on
Name of the grid file                   ... /scratch/ch1tk/orca.15456/wB97XD3_def2-SVP_toluene_S0_TDA6S_2-80.grid_cis.tmp
Exchange functional (SCF)               ... WB97X-D3
Exchange functional (TD-DFT)            ... WB97X-D3
Correlation functional (SCF)            ... WB97X-D3
Correlation functional (TD-DFT)         ... WB97X-D3
Hybrid DFT                              ... on
   Exchange mixing (SCF)                ...  0.196
   Exchange mixing (TD-DFT)             ...  0.196
   GGA exch. scaling(SCF)               ...  0.000
   GGA exch. scaling (TD-DFT)           ...  0.000
   GGA corr. scaling (SCF)              ...  1.000
   GGA corr. scaling (TD-DFT)           ...  1.000
Range-Separated Exchange                ... on
   Range Range separation parameter mu  .... 0.250
   Max. amount of RS exchange (SCF)     ...  0.804
   Max. amount of RS exchange (TD-DFT)  ...  0.804

Building densities             ... done
Calculating rho(r) on the grid ... done
Building xc-kernel on the grid ... done
                    *** TD-DFT CALCULATION INITIALIZED ***


------------------------
DAVIDSON-DIAGONALIZATION
------------------------

Dimension of the eigenvalue problem            ...   3708
Number of roots to be determined               ...      6
Maximum size of the expansion space            ...     60
Convergence tolerance for the residual         ...    1.000e-06
Convergence tolerance for the energies         ...    1.000e-06
Orthogonality tolerance                        ...    1.000e-14
Level Shift                                    ...    0.000e+00
Constructing the preconditioner                ... o.k.
Building the initial guess                     ... o.k.
Number of trial vectors determined             ...     60


                       ****Iteration    0****

   Memory handling for direct AO based CIS:
   Memory per vector needed      ...     1 MB
   Memory needed                 ...    23 MB
   Memory available              ...   512 MB
   Number of vectors per batch   ...   391
   Number of batches             ...     1
   Time for densities:     0.021
   Time for RI-J (Direct):     4.406
   Time for K (COSX):     3.752
   Time for XC-Integration:     2.351
   Time for Sigma-Completion:     0.102
   Size of expansion space: 18
   Lowest Energy          :    -0.005924679674
   Maximum Energy change  :     0.169342905133 (vector 5)
   Maximum residual norm  :     0.005381412004

                       ****Iteration    1****
   Time for densities:     0.007
   Time for RI-J (Direct):     1.544
   Time for K (COSX):     3.063
   Time for XC-Integration:     0.811
   Time for Sigma-Completion:     0.034
   Size of expansion space: 24
   Lowest Energy          :    -0.009425754098
   Maximum Energy change  :     0.010640530981 (vector 3)
   Maximum residual norm  :     0.002269361792

                       ****Iteration    2****
   Time for densities:     0.007
   Time for RI-J (Direct):     1.562
   Time for K (COSX):     3.111
   Time for XC-Integration:     0.834
   Time for Sigma-Completion:     0.034
   Size of expansion space: 30
   Lowest Energy          :    -0.009454139200
   Maximum Energy change  :     0.005891486402 (vector 4)
   Maximum residual norm  :     0.001663262201

                       ****Iteration    3****
   Time for densities:     0.007
   Time for RI-J (Direct):     1.567
   Time for K (COSX):     3.135
   Time for XC-Integration:     0.845
   Time for Sigma-Completion:     0.036
   Size of expansion space: 36
   Lowest Energy          :    -0.009454581313
   Maximum Energy change  :     0.002346477710 (vector 3)
   Maximum residual norm  :     0.000076506194

                       ****Iteration    4****
   Time for densities:     0.007
   Time for RI-J (Direct):     1.582
   Time for K (COSX):     3.129
   Time for XC-Integration:     0.844
   Time for Sigma-Completion:     0.034
   Size of expansion space: 42
   Lowest Energy          :    -0.009454588550
   Maximum Energy change  :     0.000123565659 (vector 3)
   Maximum residual norm  :     0.000009297685

                       ****Iteration    5****
   Time for densities:     0.007
   Time for RI-J (Direct):     1.558
   Time for K (COSX):     2.974
   Time for XC-Integration:     0.811
   Time for Sigma-Completion:     0.039
   Size of expansion space: 48
   Lowest Energy          :    -0.009454588674
   Maximum Energy change  :     0.000010706458 (vector 3)
   Maximum residual norm  :     0.000000824620

      *** CONVERGENCE OF RESIDUAL NORM REACHED ***

Storing the converged CI vectors               ... /scratch/ch1tk/orca.15456/wB97XD3_def2-SVP_toluene_S0_TDA6S_2-80.cis1

                 *** DAVIDSON DONE ***

Total time for solving the CIS problem:    38.336sec

-------------------------
TD-DFT/TDA EXCITED STATES
-------------------------

the weight of the individual excitations are printed if larger than 0.01

STATE  1:  E=  -0.009455 au     -0.257 eV    -2075.0 cm**-1
    18a ->  25a  :     0.038665 (c= -0.19663502)
    21a ->  25a  :     0.163536 (c= -0.40439626)
    24a ->  25a  :     0.793404 (c=  0.89073209)

STATE  2:  E=   0.102433 au      2.787 eV    22481.4 cm**-1
    23a ->  25a  :     0.998422 (c= -0.99921069)

STATE  3:  E=   0.134166 au      3.651 eV    29446.0 cm**-1
    18a ->  25a  :     0.363096 (c=  0.60257412)
    21a ->  25a  :     0.440949 (c=  0.66404026)
    24a ->  25a  :     0.191896 (c=  0.43805902)

STATE  4:  E=   0.148919 au      4.052 eV    32683.9 cm**-1
    13a ->  25a  :     0.029043 (c= -0.17041883)
    15a ->  25a  :     0.185253 (c=  0.43041084)
    16a ->  25a  :     0.228016 (c= -0.47750998)
    19a ->  25a  :     0.232717 (c= -0.48240774)
    22a ->  25a  :     0.306964 (c=  0.55404325)

STATE  5:  E=   0.155106 au      4.221 eV    34041.9 cm**-1
    23a ->  26a  :     0.157017 (c= -0.39625416)
    24a ->  27a  :     0.329540 (c=  0.57405592)
    21b ->  32b  :     0.010586 (c=  0.10288816)
    23b ->  25b  :     0.155165 (c=  0.39390951)
    24b ->  26b  :     0.306944 (c=  0.55402510)

STATE  6:  E=   0.162634 au      4.425 eV    35694.0 cm**-1
    24a ->  26a  :     0.538641 (c=  0.73392141)
    23b ->  26b  :     0.010182 (c=  0.10090681)
    24b ->  25b  :     0.424932 (c=  0.65186793)


-----------------------------
TD-DFT/TDA-EXCITATION SPECTRA
-----------------------------

Center of mass = (  0.0174,  0.0547,  0.0000)
Calculating the Dipole integrals                  ... done
Transforming integrals                            ... done
Calculating the Linear Momentum integrals         ... done
Transforming integrals                            ... done
Calculating angular momentum integrals            ... done
Transforming integrals                            ... done

-----------------------------------------------------------------------------
         ABSORPTION SPECTRUM VIA TRANSITION ELECTRIC DIPOLE MOMENTS
-----------------------------------------------------------------------------
State   Energy  Wavelength   fosc         T2         TX        TY        TZ  
        (cm-1)    (nm)                  (au**2)     (au)      (au)      (au) 
-----------------------------------------------------------------------------
   1   -2075.0   -4819.2   -0.000000000   0.00000  -0.00000   0.00006  -0.00016
   2   22481.4    444.8   0.000032252   0.00047  -0.00003   0.00001  -0.02173
   3   29446.0    339.6   0.000001343   0.00002  -0.00002   0.00006   0.00387
   4   32683.9    306.0   0.013296550   0.13393   0.32182   0.17424   0.00001
   5   34041.9    293.8   0.000193680   0.00187   0.00036  -0.04328   0.00000
   6   35694.0    280.2   0.000355111   0.00328   0.05705   0.00452  -0.00000

-----------------------------------------------------------------------------
         ABSORPTION SPECTRUM VIA TRANSITION VELOCITY DIPOLE MOMENTS
-----------------------------------------------------------------------------
State   Energy  Wavelength   fosc         P2         PX        PY        PZ  
        (cm-1)    (nm)                  (au**2)     (au)      (au)      (au) 
-----------------------------------------------------------------------------
   1   -2075.0   -4819.2   -0.000007265   0.00000  -0.00000   0.00001   0.00032
   2   22481.4    444.8   0.001510168   0.00023  -0.00000   0.00000  -0.01523
   3   29446.0    339.6   0.000006429   0.00000  -0.00000   0.00000   0.00114
   4   32683.9    306.0   0.005853860   0.00131  -0.01594  -0.03246  -0.00000
   5   34041.9    293.8   0.000018734   0.00000  -0.00006  -0.00209   0.00000
   6   35694.0    280.2   0.000029390   0.00001   0.00215  -0.00160  -0.00000

-------------------------------------------------------------------
                             CD SPECTRUM
-------------------------------------------------------------------
State   Energy Wavelength       R         MX        MY        MZ   
        (cm-1)   (nm)       (1e40*cgs)   (au)      (au)      (au)  
-------------------------------------------------------------------
   1   -2075.0   -4819.2     -0.01009   0.03238  -0.38468   0.00000
   2   22481.4    444.8     -0.00017   0.01955   0.00159  -0.00001
   3   29446.0    339.6      0.00605  -0.01864   0.21815   0.00003
   4   32683.9    306.0      0.00278   0.00001   0.00002  -0.36781
   5   34041.9    293.8     -0.00013  -0.00000   0.00001  -0.00845
   6   35694.0    280.2     -0.00006  -0.00000   0.00000   0.01990

Total run time:       38.928 sec

           *** ORCA-CIS/TD-DFT FINISHED WITHOUT ERROR ***

-----------------------
CIS/TD-DFT TOTAL ENERGY
-----------------------

    E(SCF)  =   -306.976031288 Eh
    DE(CIS) =     -0.009454589 Eh (Root  1)
    ----------------------------- ---------
    E(tot)  =   -306.985485876 Eh



-------------------------------------------------------------------------------
                          DFT DISPERSION CORRECTION                            
                                                                               
                              DFTD3 V3.1  Rev 1                                
                              USING zero damping                               
-------------------------------------------------------------------------------
The omegaB97X-D3 functional is recognized. Fit by Chai et al.
Active option DFTDOPT                   ...         3   

molecular C6(AA) [au] = 2038.059794 


            DFT-D V3
 parameters
 s6 scaling factor         :     1.0000 
 rs6 scaling factor        :     1.2810 
 s8 scaling factor         :     1.0000 
 rs8 scaling factor        :     1.0940 
 Damping factor alpha6     :    14.0000 
 Damping factor alpha8     :    16.0000 
 ad hoc parameters k1-k3   :    16.0000     1.3333    -4.0000 

 Edisp/kcal,au: -2.008682108103  -0.003201038354 
 E6   /kcal   :  -0.848707749 
 E8   /kcal   :  -1.159974359 
 % E8         :  57.748030652 

-------------------------   ----------------
Dispersion correction           -0.003201038
-------------------------   ----------------


-------------------------   --------------------
FINAL SINGLE POINT ENERGY      -306.979232326045
-------------------------   --------------------


                            ***************************************
                            *     ORCA property calculations      *
                            ***************************************

                                    ---------------------
                                    Active property flags
                                    ---------------------
   (+) Dipole Moment


------------------------------------------------------------------------------
                       ORCA ELECTRIC PROPERTIES CALCULATION
------------------------------------------------------------------------------

Dipole Moment Calculation                       ... on
Quadrupole Moment Calculation                   ... off
Polarizability Calculation                      ... off
GBWName                                         ... /scratch/ch1tk/orca.15456/wB97XD3_def2-SVP_toluene_S0_TDA6S_2-80.gbw
Electron density file                           ... /scratch/ch1tk/orca.15456/wB97XD3_def2-SVP_toluene_S0_TDA6S_2-80.scfp.tmp
The origin for moment calculation is the CENTER OF MASS  = ( 0.017353,  0.054685  0.000000)

-------------
DIPOLE MOMENT
-------------
                                X             Y             Z
Electronic contribution:     -2.26753       0.88856      -0.00000
Nuclear contribution   :      2.33492      -1.38811       0.00000
                        -----------------------------------------
Total Dipole Moment    :      0.06739      -0.49955      -0.00000
                        -----------------------------------------
Magnitude (a.u.)       :      0.50407
Magnitude (Debye)      :      1.28125


Timings for individual modules:

Sum of individual times         ...      249.525 sec (=   4.159 min)
GTO integral calculation        ...        0.274 sec (=   0.005 min)   0.1 %
SCF iterations                  ...      210.289 sec (=   3.505 min)  84.3 %
CIS module                      ...       38.962 sec (=   0.649 min)  15.6 %
                             ****ORCA TERMINATED NORMALLY****
TOTAL RUN TIME: 0 days 0 hours 4 minutes 9 seconds 793 msec
