
                                 *****************
                                 * O   R   C   A *
                                 *****************

           --- An Ab Initio, DFT and Semiempirical electronic structure package ---

                  #######################################################
                  #                        -***-                        #
                  #  Department of molecular theory and spectroscopy    #
                  #              Directorship: Frank Neese              #
                  # Max Planck Institute for Chemical Energy Conversion #
                  #                  D-45470 Muelheim/Ruhr              #
                  #                       Germany                       #
                  #                                                     #
                  #                  All rights reserved                #
                  #                        -***-                        #
                  #######################################################


                         Program Version 4.0.1.2 - RELEASE -


 With contributions from (in alphabetic order):
   Daniel Aravena         : Magnetic Properties
   Michael Atanasov       : Ab Initio Ligand Field Theory
   Ute Becker             : Parallelization
   Martin Brehm           : Molecular dynamics
   Dmytro Bykov           : SCF Hessian
   Vijay G. Chilkuri      : MRCI spin determinant printing
   Dipayan Datta          : RHF DLPNO-CCSD density
   Achintya Kumar Dutta   : EOM-CC, STEOM-CC
   Dmitry Ganyushin       : Spin-Orbit,Spin-Spin,Magnetic field MRCI
   Yang Guo               : DLPNO-NEVPT2, CIM, IAO-localization
   Andreas Hansen         : Spin unrestricted coupled pair/coupled cluster methods
   Lee Huntington         : MR-EOM, pCC
   Robert Izsak           : Overlap fitted RIJCOSX, COSX-SCS-MP3, EOM
   Christian Kollmar      : KDIIS, OOCD, Brueckner-CCSD(T), CCSD density
   Simone Kossmann        : Meta GGA functionals, TD-DFT gradient, OOMP2, MP2 Hessian
   Martin Krupicka        : AUTO-CI
   Dagmar Lenk            : GEPOL surface
   Dimitrios Liakos       : Extrapolation schemes; parallel MDCI
   Dimitrios Manganas     : ROCIS; embedding schemes
   Dimitrios Pantazis     : SARC Basis sets
   Taras Petrenko         : DFT Hessian,TD-DFT gradient, ASA, ECA, R-Raman, ABS, FL, XAS/XES, NRVS
   Peter Pinski           : DLPNO-MP2
   Christoph Reimann      : Effective Core Potentials
   Marius Retegan         : Local ZFS, SOC
   Christoph Riplinger    : Optimizer, TS searches, QM/MM, DLPNO-CCSD(T), (RO)-DLPNO pert. Triples
   Tobias Risthaus        : Range-separated hybrids, TD-DFT gradient, RPA, STAB
   Michael Roemelt        : Restricted open shell CIS
   Masaaki Saitow         : Open-shell DLPNO
   Barbara Sandhoefer     : DKH picture change effects
   Kantharuban Sivalingam : CASSCF convergence, NEVPT2, FIC-MRCI
   Georgi Stoychev        : AutoAux
   Boris Wezisla          : Elementary symmetry handling
   Frank Wennmohs         : Technical directorship


 We gratefully acknowledge several colleagues who have allowed us to
 interface, adapt or use parts of their codes:
   Stefan Grimme, W. Hujo, H. Kruse,             : VdW corrections, initial TS optimization,
                  C. Bannwarth                     DFT functionals, gCP, sTDA/sTD-DF
   Ed Valeev                                     : LibInt (2-el integral package), F12 methods
   Garnet Chan, S. Sharma, J. Yang, R. Olivares  : DMRG
   Ulf Ekstrom                                   : XCFun DFT Library
   Mihaly Kallay                                 : mrcc  (arbitrary order and MRCC methods)
   Andreas Klamt, Michael Diedenhofen            : otool_cosmo (COSMO solvation model)
   Jiri Pittner, Ondrej Demel                    : Mk-CCSD
   Frank Weinhold                                : gennbo (NPA and NBO analysis)
   Christopher J. Cramer and Donald G. Truhlar   : smd solvation model


 Your calculation uses the libint2 library for the computation of 2-el integrals
 For citations please refer to: http://libint.valeyev.net

 This ORCA versions uses:
   CBLAS   interface :  Fast vector & matrix operations
   LAPACKE interface :  Fast linear algebra routines
   SCALAPACK package :  Parallel linear algebra routines


Your calculation utilizes the atom-pairwise dispersion correction
with the zero-damping scheme (D30)
Cite in your paper:
S.Grimme, J.Antony, S.Ehrlich and H.Krieg, J.Chem.Phys., 132, (2010), 154104 
   

XCFun DFT library Copyright 2009-2010 Ulf Ekstrom and contributors.
See http://admol.org/xcfun for more information. This is free soft-
ware; see the source code for copying conditions. There is ABSOLUTELY
NO WARRANTY; not even for MERCHANTABILITY or FITNESS FOR A PARTICULAR
PURPOSE. For details see the documentation. Scientific users of this 
library should cite U. Ekstrom, L. Visscher, R. Bast, A. J. Thorvald-
sen and K. Ruud; J.Chem.Theor.Comp. 2010, DOI: 10.1021/ct100117s
XCFun Version 0.99 
Your calculation utilizes the basis: def2-SVP
   F. Weigend and R. Ahlrichs, Phys. Chem. Chem. Phys. 7, 3297 (2005).

Your calculation utilizes the auxiliary basis: def2/JK
   H-Ba, Hf-Rn: F. Weigend, J. Comput. Chem. 29, 167 (2008).

WARNING: Overwriting auxiliary coulomb basis with /JK basis!
================================================================================
                                        WARNINGS
                       Please study these warnings very carefully!
================================================================================

Warning: TCutStore was < 0. Adjusted to Thresh (uncritical)
INFO   : Checking CIS options ...

WARNING: CIS/ROCIS methods need fully converged wavefunctions
  ===> : Setting SCFConvForced true
         You can overwrite this default with %scf ConvForced false 


INFO   : the flag for use of LIBINT has been found!

================================================================================
                                       INPUT FILE
================================================================================
NAME = /scratch/ch1tk/orca.15266/wB97XD3_def2-SVP_toluene_S0_TDA6S_1-30.inp
|  1> ! UKS wB97X-D3 def2-SVP RIJCOSX def2/JK SlowConv
|  2>  
|  3> 
|  4> %scf
|  5> 	MaxIter		500
|  6> 	STABPerform	True
|  7> end
|  8> 
|  9> %tddft
| 10> 	NRoots 6
| 11> end
| 12> 
| 13> * xyz 0 1
| 14>  C                 -1.18578599   -1.17301779    0.00000000
| 15>  C                 -1.22528521    0.21672485    0.00000000
| 16>  C                 -0.03021307    0.94488843    0.00000000
| 17>  C                  1.19387265    0.26897053    0.00000000
| 18>  C                  1.21998389   -1.12396818    0.00000000
| 19>  C                  0.03366349   -1.85245673    0.00000000
| 20>  H                 -2.12142076   -1.73821028    0.00000000
| 21>  H                 -2.17044776    0.76362561    0.00000000
| 22>  H                  2.12866956    0.83920121    0.00000000
| 23>  H                  2.18175171   -1.64285600    0.00000000
| 24>  H                  0.05704252   -2.94432740    0.00000000
| 25>  O                 -0.11105943    2.29589847    0.00000000
| 26>  H                  1.08737566    2.79963783    0.00000000
| 27> end
| 28> 
| 29>                          ****END OF INPUT****
================================================================================

                       ****************************
                       * Single Point Calculation *
                       ****************************

---------------------------------
CARTESIAN COORDINATES (ANGSTROEM)
---------------------------------
  C     -1.185786   -1.173018    0.000000
  C     -1.225285    0.216725    0.000000
  C     -0.030213    0.944888    0.000000
  C      1.193873    0.268971    0.000000
  C      1.219984   -1.123968    0.000000
  C      0.033663   -1.852457    0.000000
  H     -2.121421   -1.738210    0.000000
  H     -2.170448    0.763626    0.000000
  H      2.128670    0.839201    0.000000
  H      2.181752   -1.642856    0.000000
  H      0.057043   -2.944327    0.000000
  O     -0.111059    2.295898    0.000000
  H      1.087376    2.799638    0.000000

----------------------------
CARTESIAN COORDINATES (A.U.)
----------------------------
  NO LB      ZA    FRAG     MASS         X           Y           Z
   0 C     6.0000    0    12.011   -2.240811   -2.216682    0.000000
   1 C     6.0000    0    12.011   -2.315453    0.409551    0.000000
   2 C     6.0000    0    12.011   -0.057094    1.785580    0.000000
   3 C     6.0000    0    12.011    2.256092    0.508281    0.000000
   4 C     6.0000    0    12.011    2.305435   -2.123992    0.000000
   5 C     6.0000    0    12.011    0.063615   -3.500636    0.000000
   6 H     1.0000    0     1.008   -4.008904   -3.284741    0.000000
   7 H     1.0000    0     1.008   -4.101552    1.443043    0.000000
   8 H     1.0000    0     1.008    4.022602    1.585860    0.000000
   9 H     1.0000    0     1.008    4.122913   -3.104548    0.000000
  10 H     1.0000    0     1.008    0.107795   -5.563972    0.000000
  11 O     8.0000    0    15.999   -0.209872    4.338619    0.000000
  12 H     1.0000    0     1.008    2.054842    5.290549    0.000000

--------------------------------
INTERNAL COORDINATES (ANGSTROEM)
--------------------------------
 C      0   0   0     0.000000000000     0.00000000     0.00000000
 C      1   0   0     1.390303849457     0.00000000     0.00000000
 C      2   1   0     1.399435464408   119.72614521     0.00000000
 C      3   2   1     1.398302848974   119.73915203     0.00000000
 C      4   3   2     1.393183421761   119.98059071     0.00000000
 C      5   4   3     1.392139238344   120.47909682     0.00000000
 H      1   2   3     1.093094219903   119.50705551   180.00000085
 H      2   1   3     1.091985662548   121.68304388   180.00000000
 H      4   3   2     1.094992370457   119.70992277   180.00000000
 H      5   4   3     1.092813757843   119.42141969   180.00000000
 H      6   5   4     1.092120936092   120.32638097   180.00000085
 O      3   2   1     1.353426858794   117.92958877   180.00000000
 H     12   3   2     1.300000002983   109.37394559   180.00000000

---------------------------
INTERNAL COORDINATES (A.U.)
---------------------------
 C      0   0   0     0.000000000000     0.00000000     0.00000000
 C      1   0   0     2.627293518410     0.00000000     0.00000000
 C      2   1   0     2.644549769828   119.72614521     0.00000000
 C      3   2   1     2.642409436842   119.73915203     0.00000000
 C      4   3   2     2.632735121448   119.98059071     0.00000000
 C      5   4   3     2.630761900756   120.47909682     0.00000000
 H      1   2   3     2.065648714189   119.50705551   180.00000085
 H      2   1   3     2.063553844385   121.68304388   180.00000000
 H      4   3   2     2.069235698897   119.70992277   180.00000000
 H      5   4   3     2.065118717705   119.42141969   180.00000000
 H      6   5   4     2.063809474335   120.32638097   180.00000085
 O      3   2   1     2.557606105415   117.92958877   180.00000000
 H     12   3   2     2.456643979735   109.37394559   180.00000000

---------------------
BASIS SET INFORMATION
---------------------
There are 3 groups of distinct atoms

 Group   1 Type C   : 7s4p1d contracted to 3s2p1d pattern {511/31/1}
 Group   2 Type H   : 4s1p contracted to 2s1p pattern {31/1}
 Group   3 Type O   : 7s4p1d contracted to 3s2p1d pattern {511/31/1}

Atom   0C    basis set group =>   1
Atom   1C    basis set group =>   1
Atom   2C    basis set group =>   1
Atom   3C    basis set group =>   1
Atom   4C    basis set group =>   1
Atom   5C    basis set group =>   1
Atom   6H    basis set group =>   2
Atom   7H    basis set group =>   2
Atom   8H    basis set group =>   2
Atom   9H    basis set group =>   2
Atom  10H    basis set group =>   2
Atom  11O    basis set group =>   3
Atom  12H    basis set group =>   2
-------------------------------
AUXILIARY BASIS SET INFORMATION
-------------------------------
There are 3 groups of distinct atoms

 Group   1 Type C   : 14s10p6d2f1g contracted to 10s8p5d1f1g pattern {5111111111/31111111/21111/2/1}
 Group   2 Type H   : 4s2p2d contracted to 2s2p2d pattern {31/11/11}
 Group   3 Type O   : 14s10p6d2f1g contracted to 10s8p4d2f1g pattern {5111111111/31111111/3111/11/1}

Atom   0C    basis set group =>   1
Atom   1C    basis set group =>   1
Atom   2C    basis set group =>   1
Atom   3C    basis set group =>   1
Atom   4C    basis set group =>   1
Atom   5C    basis set group =>   1
Atom   6H    basis set group =>   2
Atom   7H    basis set group =>   2
Atom   8H    basis set group =>   2
Atom   9H    basis set group =>   2
Atom  10H    basis set group =>   2
Atom  11O    basis set group =>   3
Atom  12H    basis set group =>   2
------------------------------------------------------------------------------
                           ORCA GTO INTEGRAL CALCULATION
                           -- RI-GTO INTEGRALS CHOSEN --
------------------------------------------------------------------------------

                         BASIS SET STATISTICS AND STARTUP INFO

Gaussian basis set:
 # of primitive gaussian shells          ...  114
 # of primitive gaussian functions       ...  210
 # of contracted shells                  ...   60
 # of contracted basis functions         ...  128
 Highest angular momentum                ...    2
 Maximum contraction depth               ...    5
Auxiliary gaussian basis set:
 # of primitive gaussian shells          ...  279
 # of primitive gaussian functions       ...  799
 # of contracted shells                  ...  211
 # of contracted aux-basis functions     ...  635
 Highest angular momentum                ...    4
 Maximum contraction depth               ...    5
Ratio of auxiliary to basis functions    ...  4.96
Integral package used                  ... LIBINT
 One Electron integrals                  ... done
 Ordering auxiliary basis shells         ... done
 Integral threshhold             Thresh  ...  1.000e-10
 Primitive cut-off               TCut    ...  1.000e-11
 Pre-screening matrix                    ... done
 Shell pair data                         ... 
 Ordering of the shell pairs             ... done (   0.000 sec) 1768 of 1830 pairs
 Determination of significant pairs      ... done (   0.000 sec)
 Creation of shell pair data             ... done (   0.001 sec)
 Storage of shell pair data              ... done (   0.001 sec)
 Shell pair data done in (   0.002 sec)
 Computing two index integrals           ... done
 Cholesky decomposition of the V-matrix  ... done


Timings:
 Total evaluation time                   ...   0.260 sec (  0.004 min)
 One electron matrix time                ...   0.013 sec (  0.000 min) =  5.1%
 Schwartz matrix evaluation time         ...   0.132 sec (  0.002 min) = 50.7%
 Two index repulsion integral time       ...   0.064 sec (  0.001 min) = 24.7%
 Cholesky decomposition of V             ...   0.026 sec (  0.000 min) = 10.1%
 Three index repulsion integral time     ...   0.000 sec (  0.000 min) =  0.0%

-------------------------------------------------------------------------------
                                 ORCA SCF
-------------------------------------------------------------------------------

------------
SCF SETTINGS
------------
Hamiltonian:
 Density Functional     Method          .... DFT(GTOs)
 Exchange Functional    Exchange        .... WB97X-D3
 Correlation Functional Correlation     .... WB97X-D3
 Gradients option       PostSCFGGA      .... off
 Hybrid DFT is turned on
   Fraction HF Exchange ScalHFX         ....  0.195728
   Scaling of DF-GGA-X  ScalDFX         ....  0.000000
   Scaling of DF-GGA-C  ScalDFC         ....  1.000000
   Scaling of DF-LDA-C  ScalLDAC        ....  1.000000
   Perturbative correction              ....  0.000000
 Long-range corrected/Screened/Range-Separated Hybrid DFT is turned on
   Amount of maximum screened exact exchange              ....  0.804272
   Range separation parameter mu (erf(mu*r12)/r12)        ....  0.250000
 RI-approximation to the Coulomb term is turned on
   Number of auxiliary basis functions  .... 635
   RIJ-COSX (HFX calculated with COS-X)).... on


General Settings:
 Integral files         IntName         .... /scratch/ch1tk/orca.15266/wB97XD3_def2-SVP_toluene_S0_TDA6S_1-30
 Hartree-Fock type      HFTyp           .... UHF
 Total Charge           Charge          ....    0
 Multiplicity           Mult            ....    1
 Number of Electrons    NEL             ....   50
 Basis Dimension        Dim             ....  128
 Nuclear Repulsion      ENuc            ....    269.6922081511 Eh

Convergence Acceleration:
 DIIS                   CNVDIIS         .... on
   Start iteration      DIISMaxIt       ....     0
   Startup error        DIISStart       ....  0.200000
   # of expansion vecs  DIISMaxEq       ....     5
   Bias factor          DIISBfac        ....   1.050
   Max. coefficient     DIISMaxC        ....  10.000
 Newton-Raphson         CNVNR           .... off
 SOSCF                  CNVSOSCF        .... off
 Level Shifting         CNVShift        .... on
   Level shift para.    LevelShift      ....    0.2500
   Turn off err/grad.   ShiftErr        ....    0.0000
 Zerner damping         CNVZerner       .... off
 Static damping         CNVDamp         .... on
   Fraction old density DampFac         ....    0.8500
   Max. Damping (<1)    DampMax         ....    0.9800
   Min. Damping (>=0)   DampMin         ....    0.0000
   Turn off err/grad.   DampErr         ....    0.0300
 Fernandez-Rico         CNVRico         .... off

SCF Procedure:
 Maximum # iterations   MaxIter         ....   500
 SCF integral mode      SCFMode         .... Direct
   Integral package                     .... LIBINT
 Reset frequeny         DirectResetFreq ....    20
 Integral Threshold     Thresh          ....  1.000e-10 Eh
 Primitive CutOff       TCut            ....  1.000e-11 Eh

Convergence Tolerance:
 Convergence Check Mode ConvCheckMode   .... Total+1el-Energy
 Convergence forced     ConvForced      .... 1
 Energy Change          TolE            ....  1.000e-06 Eh
 1-El. energy change                    ....  1.000e-03 Eh
 DIIS Error             TolErr          ....  1.000e-06


Diagonalization of the overlap matrix:
Smallest eigenvalue                        ... 2.786e-04
Time for diagonalization                   ...    0.003 sec
Threshold for overlap eigenvalues          ... 1.000e-08
Number of eigenvalues below threshold      ... 0
Time for construction of square roots      ...    0.003 sec
Total time needed                          ...    0.007 sec

-------------------
DFT GRID GENERATION
-------------------

General Integration Accuracy     IntAcc      ...  4.340
Radial Grid Type                 RadialGrid  ... Gauss-Chebyshev
Angular Grid (max. acc.)         AngularGrid ... Lebedev-110
Angular grid pruning method      GridPruning ... 3 (G Style)
Weight generation scheme         WeightScheme... Becke
Basis function cutoff            BFCut       ...    1.0000e-10
Integration weight cutoff        WCut        ...    1.0000e-14
Grids for H and He will be reduced by one unit

# of grid points (after initial pruning)     ...  16416 (   0.0 sec)
# of grid points (after weights+screening)   ...  15339 (   0.0 sec)
nearest neighbour list constructed           ...    0.0 sec
Grid point re-assignment to atoms done       ...    0.0 sec
Grid point division into batches done        ...    0.0 sec
Reduced shell lists constructed in    0.2 sec

Total number of grid points                  ...    15339
Total number of batches                      ...      245
Average number of points per batch           ...       62
Average number of grid points per atom       ...     1180
Average number of shells per batch           ...    44.49 (74.15%)
Average number of basis functions per batch  ...    94.46 (73.79%)
Average number of large shells per batch     ...    35.96 (80.84%)
Average number of large basis fcns per batch ...    75.43 (79.86%)
Maximum spatial batch extension              ...  20.15, 16.74, 40.11 au
Average spatial batch extension              ...   3.91,  3.62,  5.66 au

Time for grid setup =    0.201 sec

------------------------------
INITIAL GUESS: MODEL POTENTIAL
------------------------------
Loading Hartree-Fock densities                     ... done
Calculating cut-offs                               ... done
Setting up the integral package                    ... done
Initializing the effective Hamiltonian             ... done
Starting the Coulomb interaction                   ... done (   0.1 sec)
Reading the grid                                   ... done
Mapping shells                                     ... done
Starting the XC term evaluation                    ... done (   0.2 sec)
  promolecular density results
     # of electrons  =     50.000663164
     EX              =    -40.544432332
     EC              =     -1.645436991
     EX+EC           =    -42.189869323
Transforming the Hamiltonian                       ... done (   0.0 sec)
Diagonalizing the Hamiltonian                      ... done (   0.0 sec)
Back transforming the eigenvectors                 ... done (   0.0 sec)
Now organizing SCF variables                       ... done
                      ------------------
                      INITIAL GUESS DONE (   0.6 sec)
                      ------------------
--------------------
COSX GRID GENERATION
--------------------

General Integration Accuracy     IntAcc      ...  3.340
Radial Grid Type                 RadialGrid  ... Gauss-Chebyshev
Angular Grid (max. acc.)         AngularGrid ... Lebedev-50
Angular grid pruning method      GridPruning ... 3 (G Style)
Weight generation scheme         WeightScheme... Becke
Basis function cutoff            BFCut       ...    1.0000e-10
Integration weight cutoff        WCut        ...    1.0000e-14
Grids for H and He will be reduced by one unit

# of grid points (after initial pruning)     ...   5980 (   0.0 sec)
# of grid points (after weights+screening)   ...   5658 (   0.0 sec)
nearest neighbour list constructed           ...    0.0 sec
Grid point re-assignment to atoms done       ...    0.0 sec
Grid point division into batches done        ...    0.0 sec
Reduced shell lists constructed in    0.1 sec

Total number of grid points                  ...     5658
Total number of batches                      ...       95
Average number of points per batch           ...       59
Average number of grid points per atom       ...      435
Average number of shells per batch           ...    47.41 (79.01%)
Average number of basis functions per batch  ...   101.47 (79.27%)
Average number of large shells per batch     ...    39.12 (82.53%)
Average number of large basis fcns per batch ...    83.33 (82.13%)
Maximum spatial batch extension              ...  16.61, 14.62, 35.81 au
Average spatial batch extension              ...   4.66,  4.63,  7.33 au

Overlap Fitting                  UseSFitting ... on
Constructing numerical overlap ... done (      0.0 sec)
Inverting numerical overlap    ... done (      0.0 sec)
Obtaining analytic overlap     ... done (      0.0 sec)
Final contraction and storage  ... done (      0.0 sec)


General Integration Accuracy     IntAcc      ...  3.670
Radial Grid Type                 RadialGrid  ... Gauss-Chebyshev
Angular Grid (max. acc.)         AngularGrid ... Lebedev-50
Angular grid pruning method      GridPruning ... 3 (G Style)
Weight generation scheme         WeightScheme... Becke
Basis function cutoff            BFCut       ...    1.0000e-10
Integration weight cutoff        WCut        ...    1.0000e-14
Grids for H and He will be reduced by one unit

# of grid points (after initial pruning)     ...   7582 (   0.0 sec)
# of grid points (after weights+screening)   ...   7148 (   0.0 sec)
nearest neighbour list constructed           ...    0.0 sec
Grid point re-assignment to atoms done       ...    0.0 sec
Grid point division into batches done        ...    0.0 sec
Reduced shell lists constructed in    0.1 sec

Total number of grid points                  ...     7148
Total number of batches                      ...      117
Average number of points per batch           ...       61
Average number of grid points per atom       ...      550
Average number of shells per batch           ...    46.86 (78.09%)
Average number of basis functions per batch  ...    99.97 (78.11%)
Average number of large shells per batch     ...    38.18 (81.48%)
Average number of large basis fcns per batch ...    80.48 (80.50%)
Maximum spatial batch extension              ...  17.81, 15.26, 33.72 au
Average spatial batch extension              ...   4.58,  4.30,  7.21 au

Overlap Fitting                  UseSFitting ... on
Constructing numerical overlap ... done (      0.0 sec)
Inverting numerical overlap    ... done (      0.0 sec)
Obtaining analytic overlap     ... done (      0.0 sec)
Final contraction and storage  ... done (      0.0 sec)


General Integration Accuracy     IntAcc      ...  4.010
Radial Grid Type                 RadialGrid  ... Gauss-Chebyshev
Angular Grid (max. acc.)         AngularGrid ... Lebedev-110
Angular grid pruning method      GridPruning ... 3 (G Style)
Weight generation scheme         WeightScheme... Becke
Basis function cutoff            BFCut       ...    1.0000e-10
Integration weight cutoff        WCut        ...    1.0000e-14
Grids for H and He will be reduced by one unit

# of grid points (after initial pruning)     ...  14238 (   0.0 sec)
# of grid points (after weights+screening)   ...  13319 (   0.0 sec)
nearest neighbour list constructed           ...    0.0 sec
Grid point re-assignment to atoms done       ...    0.0 sec
Grid point division into batches done        ...    0.0 sec
Reduced shell lists constructed in    0.1 sec

Total number of grid points                  ...    13319
Total number of batches                      ...      213
Average number of points per batch           ...       62
Average number of grid points per atom       ...     1025
Average number of shells per batch           ...    45.19 (75.31%)
Average number of basis functions per batch  ...    96.10 (75.08%)
Average number of large shells per batch     ...    36.50 (80.77%)
Average number of large basis fcns per batch ...    76.42 (79.52%)
Maximum spatial batch extension              ...  19.20, 15.92, 31.02 au
Average spatial batch extension              ...   3.95,  3.67,  5.61 au

Overlap Fitting                  UseSFitting ... on
Constructing numerical overlap ... done (      0.1 sec)
Inverting numerical overlap    ... done (      0.0 sec)
Obtaining analytic overlap     ... done (      0.0 sec)
Final contraction and storage  ... done (      0.0 sec)

Time for X-Grid setup             =    0.577 sec
--------------
SCF ITERATIONS
--------------
ITER       Energy         Delta-E        Max-DP      RMS-DP      [F,P]     Damp
               ***  Starting incremental Fock matrix formation  ***
  0   -306.9314132939   0.000000000000 0.01475102  0.00066683  0.2252193 0.8500
  1   -306.9678622296  -0.036448935756 0.01417699  0.00063797  0.1793925 0.8500
                               ***Turning on DIIS***
  2   -306.9950272159  -0.027164986262 0.01119713  0.00052362  0.1348313 0.8500
  3   -307.0147435464  -0.019716330563 0.00671642  0.00038456  0.1000080 0.8500
  4   -307.0297675127  -0.015023966301 0.00525552  0.00029813  0.0805388 0.8500
  5   -307.0415269365  -0.011759423781 0.00429761  0.00024340  0.0678557 0.8500
  6   -307.0510670891  -0.009540152561 0.00363952  0.00020402  0.0578303 0.8500
  7   -307.0589544826  -0.007887393542 0.00310551  0.00017398  0.0493503 0.8500
  8   -307.0655497132  -0.006595230559 0.00264778  0.00014871  0.0417258 0.8500
  9   -307.0710747063  -0.005524993061 0.00225016  0.00012675  0.0352555 0.8500
 10   -307.0757097980  -0.004635091727 0.01272135  0.00071826  0.0298937 0.0000
 11   -307.1010018770  -0.025292078993 0.00040716  0.00001861  0.0009964 0.0000
               *** Restarting incremental Fock matrix formation ***
                                   *** Resetting DIIS ***
 12   -307.1010266135  -0.000024736549 0.00024546  0.00000803  0.0003893 0.0000
 13   -307.1010277096  -0.000001096036 0.00015036  0.00000440  0.0003140 0.0000
                 **** Energy Check signals convergence ****

               *****************************************************
               *                     SUCCESS                       *
               *           SCF CONVERGED AFTER  14 CYCLES          *
               *****************************************************


------------------------------------------------------------------------------
                          SCF STABILITY ANALYSIS                              
------------------------------------------------------------------------------


---------------
TD-DFT XC SETUP
---------------

DFT calculation                         ... on
Name of the grid file                   ... /scratch/ch1tk/orca.15266/wB97XD3_def2-SVP_toluene_S0_TDA6S_1-30.grid.tmp
Exchange functional (SCF)               ... WB97X-D3
Exchange functional (TD-DFT)            ... WB97X-D3
Correlation functional (SCF)            ... WB97X-D3
Correlation functional (TD-DFT)         ... WB97X-D3
Hybrid DFT                              ... on
   Exchange mixing (SCF)                ...  0.196
   Exchange mixing (TD-DFT)             ...  0.196
   GGA exch. scaling(SCF)               ...  0.000
   GGA exch. scaling (TD-DFT)           ...  0.000
   GGA corr. scaling (SCF)              ...  1.000
   GGA corr. scaling (TD-DFT)           ...  1.000
Range-Separated Exchange                ... on
   Range Range separation parameter mu  .... 0.250
   Max. amount of RS exchange (SCF)     ...  0.804
   Max. amount of RS exchange (TD-DFT)  ...  0.804

Electron density on the grid   ... found on disk
Building xc-kernel on the grid ... done
                    *** TD-DFT CALCULATION INITIALIZED ***

                       ****Iteration    0****

   Memory handling for direct AO based CIS:
   Memory per vector needed      ...     1 MB
   Memory needed                 ...     7 MB
   Memory available              ...  1024 MB
   Number of vectors per batch   ...   783
   Number of batches             ...     1
   Time for densities:     0.006
   Time for XC-Integration:     1.582
   Time for K (COSX):    10.209
   Time for RI-J (Direct):     1.496
   Time for Sigma-Completion:     0.028
   Lowest Energy          :     0.142148448603
   Maximum Energy change  :     0.178219171165 (vector 2)
   Maximum residual norm  :     0.006088155755

                       ****Iteration    1****
   Time for densities:     0.003
   Time for XC-Integration:     0.873
   Time for K (COSX):    10.227
   Time for RI-J (Direct):     0.822
   Time for Sigma-Completion:     0.014
   Lowest Energy          :     0.133048101249
   Maximum Energy change  :     0.028398598282 (vector 1)
   Maximum residual norm  :     0.002246656108

                       ****Iteration    2****
   Time for densities:     0.003
   Time for XC-Integration:     0.878
   Time for K (COSX):    10.209
   Time for RI-J (Direct):     0.834
   Time for Sigma-Completion:     0.014
   Lowest Energy          :     0.132627630352
   Maximum Energy change  :     0.002826766439 (vector 1)
   Maximum residual norm  :     0.000133216004

                       ****Iteration    3****
   Time for densities:     0.003
   Time for XC-Integration:     0.858
   Time for K (COSX):    10.048
   Time for RI-J (Direct):     0.848
   Time for Sigma-Completion:     0.014
   Lowest Energy          :     0.109708813450
   Maximum Energy change  :     0.032309539203 (vector 2)
   Maximum residual norm  :     0.012749009439

                       ****Iteration    4****
   Time for densities:     0.003
   Time for XC-Integration:     0.878
   Time for K (COSX):    10.258
   Time for RI-J (Direct):     0.120
   Time for Sigma-Completion:     0.014
   Lowest Energy          :     0.085417501357
   Maximum Energy change  :     0.024291312093 (vector 0)
   Maximum residual norm  :     0.002361890677

                       ****Iteration    5****
   Time for densities:     0.003
   Time for XC-Integration:     0.877
   Time for K (COSX):    10.222
   Time for RI-J (Direct):     0.120
   Time for Sigma-Completion:     0.014
   Lowest Energy          :     0.080673550204
   Maximum Energy change  :     0.004743951153 (vector 0)
   Maximum residual norm  :     0.000298562272

                       ****Iteration    6****
   Time for densities:     0.003
   Time for XC-Integration:     0.882
   Time for K (COSX):    10.133
   Time for RI-J (Direct):     0.117
   Time for Sigma-Completion:     0.014
   Lowest Energy          :     0.080162073123
   Maximum Energy change  :     0.000511477081 (vector 0)
   Maximum residual norm  :     0.000031437249

      *** CONVERGENCE OF RESIDUAL NORM REACHED ***

----------------------------- 
SCF STABILITY ANALYSIS RESULT 
----------------------------- 

UHF/UKS->UHF/UKS - singlet - internal

   Root    Eigenvalue (au) 
     0       0.080162 
     1       0.132855 
     2       0.133209 

Stability Analysis indicates a stable HF/KS wave function.


Total time for performing the stability analysis:    82.852sec

Setting up the final grid:

General Integration Accuracy     IntAcc      ...  4.670
Radial Grid Type                 RadialGrid  ... Gauss-Chebyshev
Angular Grid (max. acc.)         AngularGrid ... Lebedev-302
Angular grid pruning method      GridPruning ... 3 (G Style)
Weight generation scheme         WeightScheme... Becke
Basis function cutoff            BFCut       ...    1.0000e-10
Integration weight cutoff        WCut        ...    1.0000e-14
Grids for H and He will be reduced by one unit

# of grid points (after initial pruning)     ...  63848 (   0.0 sec)
# of grid points (after weights+screening)   ...  59021 (   0.1 sec)
nearest neighbour list constructed           ...    0.0 sec
Grid point re-assignment to atoms done       ...    0.0 sec
Grid point division into batches done        ...    0.2 sec
Reduced shell lists constructed in    0.8 sec

Total number of grid points                  ...    59021
Total number of batches                      ...      930
Average number of points per batch           ...       63
Average number of grid points per atom       ...     4540
Average number of shells per batch           ...    40.46 (67.43%)
Average number of basis functions per batch  ...    85.53 (66.82%)
Average number of large shells per batch     ...    32.09 (79.33%)
Average number of large basis fcns per batch ...    66.80 (78.10%)
Maximum spatial batch extension              ...  16.82, 16.67, 23.12 au
Average spatial batch extension              ...   2.55,  2.51,  3.05 au

Final grid set up in    0.9 sec
Final integration                            ... done (   1.2 sec)
Change in XC energy                          ...     0.000604274
Integrated number of electrons               ...    49.999944784
Previous integrated no of electrons          ...    49.998400492
Old exchange energy                            =    -13.422464464 Eh
New exchange energy                            =    -13.422727420 Eh
Exchange energy change after final integration =     -0.000262956 Eh
Total energy after final integration           =   -307.100686764 Eh
Final COS-X integration done in                =     7.985 sec

----------------
TOTAL SCF ENERGY
----------------

Total Energy       :         -307.10068676 Eh           -8356.63453 eV

Components:
Nuclear Repulsion  :          269.69220815 Eh            7338.69808 eV
Electronic Energy  :         -576.79289491 Eh          -15695.33261 eV
One Electron Energy:         -949.48029534 Eh          -25836.67235 eV
Two Electron Energy:          372.68740043 Eh           10141.33974 eV

Virial components:
Potential Energy   :         -610.77535422 Eh          -16620.04234 eV
Kinetic Energy     :          303.67466746 Eh            8263.40781 eV
Virial Ratio       :            2.01128187


DFT components:
N(Alpha)           :       24.999972391801 electrons
N(Beta)            :       24.999972391801 electrons
N(Total)           :       49.999944783601 electrons
E(XC)              :      -29.702083064104 Eh       

---------------
SCF CONVERGENCE
---------------

  Last Energy change         ...   -3.7238e-07  Tolerance :   1.0000e-06
  Last MAX-Density change    ...    0.0000e+00  Tolerance :   1.0000e-05
  Last RMS-Density change    ...    0.0000e+00  Tolerance :   1.0000e-06
  Last DIIS Error            ...    1.7974e-04  Tolerance :   1.0000e-06

             **** THE GBW FILE WAS UPDATED (/scratch/ch1tk/orca.15266/wB97XD3_def2-SVP_toluene_S0_TDA6S_1-30.gbw) ****
             **** DENSITY FILE WAS UPDATED (/scratch/ch1tk/orca.15266/wB97XD3_def2-SVP_toluene_S0_TDA6S_1-30.scfp.tmp) ****
             **** ENERGY FILE WAS UPDATED (/scratch/ch1tk/orca.15266/wB97XD3_def2-SVP_toluene_S0_TDA6S_1-30.en.tmp) ****
----------------------
UHF SPIN CONTAMINATION
----------------------

Warning: in a DFT calculation there is little theoretical justification to 
         calculate <S**2> as in Hartree-Fock theory. We will do it anyways
         but you should keep in mind that the values have only limited relevance

Expectation value of <S**2>     :    -0.000000
Ideal value S*(S+1) for S=0.0   :     0.000000
Deviation                       :    -0.000000

----------------
ORBITAL ENERGIES
----------------
                 SPIN UP ORBITALS
  NO   OCC          E(Eh)            E(eV) 
   0   1.0000     -19.286269      -524.8061 
   1   1.0000     -10.351619      -281.6819 
   2   1.0000     -10.296089      -280.1708 
   3   1.0000     -10.294949      -280.1398 
   4   1.0000     -10.291180      -280.0372 
   5   1.0000     -10.286598      -279.9126 
   6   1.0000     -10.284258      -279.8489 
   7   1.0000      -1.134226       -30.8639 
   8   1.0000      -0.959932       -26.1211 
   9   1.0000      -0.857158       -23.3244 
  10   1.0000      -0.836505       -22.7625 
  11   1.0000      -0.720836       -19.6150 
  12   1.0000      -0.695692       -18.9308 
  13   1.0000      -0.627134       -17.0652 
  14   1.0000      -0.590414       -16.0660 
  15   1.0000      -0.565257       -15.3814 
  16   1.0000      -0.532356       -14.4861 
  17   1.0000      -0.520769       -14.1709 
  18   1.0000      -0.513267       -13.9667 
  19   1.0000      -0.474579       -12.9139 
  20   1.0000      -0.454048       -12.3553 
  21   1.0000      -0.435886       -11.8611 
  22   1.0000      -0.428259       -11.6535 
  23   1.0000      -0.342807        -9.3283 
  24   1.0000      -0.305179        -8.3044 
  25   0.0000       0.041375         1.1259 
  26   0.0000       0.068856         1.8737 
  27   0.0000       0.087596         2.3836 
  28   0.0000       0.150643         4.0992 
  29   0.0000       0.190122         5.1735 
  30   0.0000       0.206064         5.6073 
  31   0.0000       0.235531         6.4091 
  32   0.0000       0.245301         6.6750 
  33   0.0000       0.256685         6.9848 
  34   0.0000       0.318544         8.6680 
  35   0.0000       0.363664         9.8958 
  36   0.0000       0.379604        10.3296 
  37   0.0000       0.389509        10.5991 
  38   0.0000       0.422639        11.5006 
  39   0.0000       0.449787        12.2393 
  40   0.0000       0.504376        13.7248 
  41   0.0000       0.504678        13.7330 
  42   0.0000       0.512994        13.9593 
  43   0.0000       0.536695        14.6042 
  44   0.0000       0.555486        15.1155 
  45   0.0000       0.566191        15.4068 
  46   0.0000       0.592178        16.1140 
  47   0.0000       0.606108        16.4930 
  48   0.0000       0.635405        17.2902 
  49   0.0000       0.636700        17.3255 
  50   0.0000       0.642247        17.4764 
  51   0.0000       0.680920        18.5288 
  52   0.0000       0.702871        19.1261 
  53   0.0000       0.712196        19.3798 
  54   0.0000       0.736466        20.0403 
  55   0.0000       0.751871        20.4595 
  56   0.0000       0.769128        20.9290 
  57   0.0000       0.788453        21.4549 
  58   0.0000       0.811052        22.0698 
  59   0.0000       0.823803        22.4168 
  60   0.0000       0.837767        22.7968 
  61   0.0000       0.843225        22.9453 
  62   0.0000       0.874342        23.7921 
  63   0.0000       0.913474        24.8569 
  64   0.0000       0.922724        25.1086 
  65   0.0000       1.004339        27.3295 
  66   0.0000       1.022196        27.8154 
  67   0.0000       1.067230        29.0408 
  68   0.0000       1.117667        30.4133 
  69   0.0000       1.170552        31.8523 
  70   0.0000       1.275300        34.7027 
  71   0.0000       1.309096        35.6223 
  72   0.0000       1.336792        36.3760 
  73   0.0000       1.339408        36.4471 
  74   0.0000       1.358266        36.9603 
  75   0.0000       1.370670        37.2978 
  76   0.0000       1.389177        37.8014 
  77   0.0000       1.398869        38.0652 
  78   0.0000       1.466975        39.9184 
  79   0.0000       1.585286        43.1378 
  80   0.0000       1.602087        43.5950 
  81   0.0000       1.618836        44.0508 
  82   0.0000       1.710079        46.5336 
  83   0.0000       1.755532        47.7705 
  84   0.0000       1.773339        48.2550 
  85   0.0000       1.792071        48.7647 
  86   0.0000       1.836457        49.9725 
  87   0.0000       1.846797        50.2539 
  88   0.0000       1.849998        50.3410 
  89   0.0000       1.865026        50.7499 
  90   0.0000       1.883043        51.2402 
  91   0.0000       1.891926        51.4819 
  92   0.0000       1.903085        51.7856 
  93   0.0000       1.916425        52.1486 
  94   0.0000       1.966125        53.5010 
  95   0.0000       2.035224        55.3812 
  96   0.0000       2.047401        55.7126 
  97   0.0000       2.077615        56.5348 
  98   0.0000       2.084233        56.7149 
  99   0.0000       2.141784        58.2809 
 100   0.0000       2.196655        59.7740 
 101   0.0000       2.236671        60.8629 
 102   0.0000       2.247994        61.1710 
 103   0.0000       2.294882        62.4469 
 104   0.0000       2.317352        63.0584 
 105   0.0000       2.370225        64.4971 
 106   0.0000       2.376519        64.6684 
 107   0.0000       2.408473        65.5379 
 108   0.0000       2.444572        66.5202 
 109   0.0000       2.449648        66.6583 
 110   0.0000       2.606518        70.9270 
 111   0.0000       2.665097        72.5210 
 112   0.0000       2.704388        73.5901 
 113   0.0000       2.704725        73.5993 
 114   0.0000       2.739917        74.5569 
 115   0.0000       2.827147        76.9306 
 116   0.0000       2.830726        77.0280 
 117   0.0000       2.841492        77.3209 
 118   0.0000       2.948587        80.2351 
 119   0.0000       2.982532        81.1588 
 120   0.0000       3.072610        83.6100 
 121   0.0000       3.101817        84.4047 
 122   0.0000       3.113291        84.7170 
 123   0.0000       3.237327        88.0921 
 124   0.0000       3.285910        89.4141 
 125   0.0000       3.483447        94.7894 
 126   0.0000       3.521472        95.8241 
 127   0.0000       3.813290       103.7649 

                 SPIN DOWN ORBITALS
  NO   OCC          E(Eh)            E(eV) 
   0   1.0000     -19.286269      -524.8061 
   1   1.0000     -10.351619      -281.6819 
   2   1.0000     -10.296089      -280.1708 
   3   1.0000     -10.294949      -280.1398 
   4   1.0000     -10.291180      -280.0372 
   5   1.0000     -10.286598      -279.9126 
   6   1.0000     -10.284258      -279.8489 
   7   1.0000      -1.134226       -30.8639 
   8   1.0000      -0.959932       -26.1211 
   9   1.0000      -0.857158       -23.3244 
  10   1.0000      -0.836505       -22.7625 
  11   1.0000      -0.720836       -19.6150 
  12   1.0000      -0.695692       -18.9308 
  13   1.0000      -0.627134       -17.0652 
  14   1.0000      -0.590414       -16.0660 
  15   1.0000      -0.565257       -15.3814 
  16   1.0000      -0.532356       -14.4861 
  17   1.0000      -0.520769       -14.1709 
  18   1.0000      -0.513267       -13.9667 
  19   1.0000      -0.474579       -12.9139 
  20   1.0000      -0.454048       -12.3553 
  21   1.0000      -0.435886       -11.8611 
  22   1.0000      -0.428259       -11.6535 
  23   1.0000      -0.342807        -9.3283 
  24   1.0000      -0.305179        -8.3044 
  25   0.0000       0.041375         1.1259 
  26   0.0000       0.068856         1.8737 
  27   0.0000       0.087596         2.3836 
  28   0.0000       0.150643         4.0992 
  29   0.0000       0.190122         5.1735 
  30   0.0000       0.206064         5.6073 
  31   0.0000       0.235531         6.4091 
  32   0.0000       0.245301         6.6750 
  33   0.0000       0.256685         6.9848 
  34   0.0000       0.318544         8.6680 
  35   0.0000       0.363664         9.8958 
  36   0.0000       0.379604        10.3296 
  37   0.0000       0.389509        10.5991 
  38   0.0000       0.422639        11.5006 
  39   0.0000       0.449787        12.2393 
  40   0.0000       0.504376        13.7248 
  41   0.0000       0.504678        13.7330 
  42   0.0000       0.512994        13.9593 
  43   0.0000       0.536695        14.6042 
  44   0.0000       0.555486        15.1155 
  45   0.0000       0.566191        15.4068 
  46   0.0000       0.592178        16.1140 
  47   0.0000       0.606108        16.4930 
  48   0.0000       0.635405        17.2902 
  49   0.0000       0.636700        17.3255 
  50   0.0000       0.642247        17.4764 
  51   0.0000       0.680920        18.5288 
  52   0.0000       0.702871        19.1261 
  53   0.0000       0.712196        19.3798 
  54   0.0000       0.736466        20.0403 
  55   0.0000       0.751871        20.4595 
  56   0.0000       0.769128        20.9290 
  57   0.0000       0.788453        21.4549 
  58   0.0000       0.811052        22.0698 
  59   0.0000       0.823803        22.4168 
  60   0.0000       0.837767        22.7968 
  61   0.0000       0.843225        22.9453 
  62   0.0000       0.874342        23.7921 
  63   0.0000       0.913474        24.8569 
  64   0.0000       0.922724        25.1086 
  65   0.0000       1.004339        27.3295 
  66   0.0000       1.022196        27.8154 
  67   0.0000       1.067230        29.0408 
  68   0.0000       1.117667        30.4133 
  69   0.0000       1.170552        31.8523 
  70   0.0000       1.275300        34.7027 
  71   0.0000       1.309096        35.6223 
  72   0.0000       1.336792        36.3760 
  73   0.0000       1.339408        36.4471 
  74   0.0000       1.358266        36.9603 
  75   0.0000       1.370670        37.2978 
  76   0.0000       1.389177        37.8014 
  77   0.0000       1.398869        38.0652 
  78   0.0000       1.466975        39.9184 
  79   0.0000       1.585286        43.1378 
  80   0.0000       1.602087        43.5950 
  81   0.0000       1.618836        44.0508 
  82   0.0000       1.710079        46.5336 
  83   0.0000       1.755532        47.7705 
  84   0.0000       1.773339        48.2550 
  85   0.0000       1.792071        48.7647 
  86   0.0000       1.836457        49.9725 
  87   0.0000       1.846797        50.2539 
  88   0.0000       1.849998        50.3410 
  89   0.0000       1.865026        50.7499 
  90   0.0000       1.883043        51.2402 
  91   0.0000       1.891926        51.4819 
  92   0.0000       1.903085        51.7856 
  93   0.0000       1.916425        52.1486 
  94   0.0000       1.966125        53.5010 
  95   0.0000       2.035224        55.3812 
  96   0.0000       2.047401        55.7126 
  97   0.0000       2.077615        56.5348 
  98   0.0000       2.084233        56.7149 
  99   0.0000       2.141784        58.2809 
 100   0.0000       2.196655        59.7740 
 101   0.0000       2.236671        60.8629 
 102   0.0000       2.247994        61.1710 
 103   0.0000       2.294882        62.4469 
 104   0.0000       2.317352        63.0584 
 105   0.0000       2.370225        64.4971 
 106   0.0000       2.376519        64.6684 
 107   0.0000       2.408473        65.5379 
 108   0.0000       2.444572        66.5202 
 109   0.0000       2.449648        66.6583 
 110   0.0000       2.606518        70.9270 
 111   0.0000       2.665097        72.5210 
 112   0.0000       2.704388        73.5901 
 113   0.0000       2.704725        73.5993 
 114   0.0000       2.739917        74.5569 
 115   0.0000       2.827147        76.9306 
 116   0.0000       2.830726        77.0280 
 117   0.0000       2.841492        77.3209 
 118   0.0000       2.948587        80.2351 
 119   0.0000       2.982532        81.1588 
 120   0.0000       3.072610        83.6100 
 121   0.0000       3.101817        84.4047 
 122   0.0000       3.113291        84.7170 
 123   0.0000       3.237327        88.0921 
 124   0.0000       3.285910        89.4141 
 125   0.0000       3.483447        94.7894 
 126   0.0000       3.521472        95.8241 
 127   0.0000       3.813290       103.7649 

                    ********************************
                    * MULLIKEN POPULATION ANALYSIS *
                    ********************************

--------------------------------------------
MULLIKEN ATOMIC CHARGES AND SPIN POPULATIONS
--------------------------------------------
   0 C :   -0.009890    0.000000
   1 C :   -0.064388    0.000000
   2 C :    0.216734    0.000000
   3 C :   -0.104514    0.000000
   4 C :   -0.014786    0.000000
   5 C :   -0.035078    0.000000
   6 H :    0.023834    0.000000
   7 H :    0.020062    0.000000
   8 H :   -0.009461    0.000000
   9 H :    0.020511    0.000000
  10 H :    0.017939    0.000000
  11 O :   -0.339864    0.000000
  12 H :    0.278901    0.000000
Sum of atomic charges         :    0.0000000
Sum of atomic spin populations:    0.0000000

-----------------------------------------------------
MULLIKEN REDUCED ORBITAL CHARGES AND SPIN POPULATIONS
-----------------------------------------------------
CHARGE
  0 C s       :     3.149427  s :     3.149427
      pz      :     0.966840  p :     2.824243
      px      :     0.916770
      py      :     0.940632
      dz2     :     0.002546  d :     0.036220
      dxz     :     0.003851
      dyz     :     0.006740
      dx2y2   :     0.011037
      dxy     :     0.012046
  1 C s       :     3.211191  s :     3.211191
      pz      :     1.052455  p :     2.820807
      px      :     0.887094
      py      :     0.881257
      dz2     :     0.002644  d :     0.032390
      dxz     :     0.003318
      dyz     :     0.005332
      dx2y2   :     0.008666
      dxy     :     0.012429
  2 C s       :     2.954505  s :     2.954505
      pz      :     0.945703  p :     2.751396
      px      :     1.025801
      py      :     0.779892
      dz2     :     0.005416  d :     0.077365
      dxz     :     0.007475
      dyz     :     0.019128
      dx2y2   :     0.024923
      dxy     :     0.020424
  3 C s       :     3.186164  s :     3.186164
      pz      :     1.089105  p :     2.885717
      px      :     0.859327
      py      :     0.937284
      dz2     :     0.002686  d :     0.032633
      dxz     :     0.003370
      dyz     :     0.005276
      dx2y2   :     0.008907
      dxy     :     0.012394
  4 C s       :     3.149993  s :     3.149993
      pz      :     0.967393  p :     2.828586
      px      :     0.913879
      py      :     0.947314
      dz2     :     0.002564  d :     0.036207
      dxz     :     0.003692
      dyz     :     0.007028
      dx2y2   :     0.011366
      dxy     :     0.011557
  5 C s       :     3.143110  s :     3.143110
      pz      :     1.036065  p :     2.857613
      px      :     0.955058
      py      :     0.866489
      dz2     :     0.002555  d :     0.034355
      dxz     :     0.006278
      dyz     :     0.002506
      dx2y2   :     0.012408
      dxy     :     0.010608
  6 H s       :     0.953641  s :     0.953641
      pz      :     0.004409  p :     0.022524
      px      :     0.011679
      py      :     0.006436
  7 H s       :     0.957102  s :     0.957102
      pz      :     0.004775  p :     0.022836
      px      :     0.011853
      py      :     0.006208
  8 H s       :     0.986545  s :     0.986545
      pz      :     0.005268  p :     0.022916
      px      :     0.011651
      py      :     0.005996
  9 H s       :     0.956953  s :     0.956953
      pz      :     0.004490  p :     0.022536
      px      :     0.012121
      py      :     0.005924
 10 H s       :     0.959042  s :     0.959042
      pz      :     0.004914  p :     0.023019
      px      :     0.003055
      py      :     0.015050
 11 O s       :     3.793860  s :     3.793860
      pz      :     1.836571  p :     4.533478
      px      :     1.392501
      py      :     1.304405
      dz2     :     0.001912  d :     0.012527
      dxz     :     0.000360
      dyz     :     0.002515
      dx2y2   :     0.005287
      dxy     :     0.002454
 12 H s       :     0.692875  s :     0.692875
      pz      :     0.005144  p :     0.028225
      px      :     0.016915
      py      :     0.006166

SPIN
  0 C s       :     0.000000  s :     0.000000
      pz      :     0.000000  p :     0.000000
      px      :     0.000000
      py      :     0.000000
      dz2     :     0.000000  d :     0.000000
      dxz     :     0.000000
      dyz     :     0.000000
      dx2y2   :     0.000000
      dxy     :     0.000000
  1 C s       :     0.000000  s :     0.000000
      pz      :     0.000000  p :     0.000000
      px      :     0.000000
      py      :     0.000000
      dz2     :     0.000000  d :     0.000000
      dxz     :     0.000000
      dyz     :     0.000000
      dx2y2   :     0.000000
      dxy     :     0.000000
  2 C s       :     0.000000  s :     0.000000
      pz      :     0.000000  p :     0.000000
      px      :     0.000000
      py      :     0.000000
      dz2     :     0.000000  d :     0.000000
      dxz     :     0.000000
      dyz     :     0.000000
      dx2y2   :     0.000000
      dxy     :     0.000000
  3 C s       :     0.000000  s :     0.000000
      pz      :     0.000000  p :     0.000000
      px      :     0.000000
      py      :     0.000000
      dz2     :     0.000000  d :     0.000000
      dxz     :     0.000000
      dyz     :     0.000000
      dx2y2   :     0.000000
      dxy     :     0.000000
  4 C s       :     0.000000  s :     0.000000
      pz      :     0.000000  p :     0.000000
      px      :     0.000000
      py      :     0.000000
      dz2     :     0.000000  d :     0.000000
      dxz     :     0.000000
      dyz     :     0.000000
      dx2y2   :     0.000000
      dxy     :     0.000000
  5 C s       :     0.000000  s :     0.000000
      pz      :     0.000000  p :     0.000000
      px      :     0.000000
      py      :     0.000000
      dz2     :     0.000000  d :     0.000000
      dxz     :     0.000000
      dyz     :     0.000000
      dx2y2   :     0.000000
      dxy     :     0.000000
  6 H s       :     0.000000  s :     0.000000
      pz      :     0.000000  p :     0.000000
      px      :     0.000000
      py      :     0.000000
  7 H s       :     0.000000  s :     0.000000
      pz      :     0.000000  p :     0.000000
      px      :     0.000000
      py      :     0.000000
  8 H s       :     0.000000  s :     0.000000
      pz      :     0.000000  p :     0.000000
      px      :     0.000000
      py      :     0.000000
  9 H s       :     0.000000  s :     0.000000
      pz      :     0.000000  p :     0.000000
      px      :     0.000000
      py      :     0.000000
 10 H s       :     0.000000  s :     0.000000
      pz      :     0.000000  p :     0.000000
      px      :     0.000000
      py      :     0.000000
 11 O s       :     0.000000  s :     0.000000
      pz      :     0.000000  p :     0.000000
      px      :     0.000000
      py      :     0.000000
      dz2     :     0.000000  d :     0.000000
      dxz     :     0.000000
      dyz     :     0.000000
      dx2y2   :     0.000000
      dxy     :     0.000000
 12 H s       :     0.000000  s :     0.000000
      pz      :     0.000000  p :     0.000000
      px      :     0.000000
      py      :     0.000000


                     *******************************
                     * LOEWDIN POPULATION ANALYSIS *
                     *******************************

-------------------------------------------
LOEWDIN ATOMIC CHARGES AND SPIN POPULATIONS
-------------------------------------------
   0 C :   -0.015405    0.000000
   1 C :   -0.065363    0.000000
   2 C :    0.039179    0.000000
   3 C :   -0.095669    0.000000
   4 C :   -0.017925    0.000000
   5 C :   -0.064806    0.000000
   6 H :    0.034550    0.000000
   7 H :    0.037288    0.000000
   8 H :    0.023807    0.000000
   9 H :    0.033424    0.000000
  10 H :    0.030466    0.000000
  11 O :   -0.169439    0.000000
  12 H :    0.229894    0.000000

----------------------------------------------------
LOEWDIN REDUCED ORBITAL CHARGES AND SPIN POPULATIONS
----------------------------------------------------
CHARGE
  0 C s       :     2.858596  s :     2.858596
      pz      :     0.950285  p :     3.064154
      px      :     1.052445
      py      :     1.061425
      dz2     :     0.005936  d :     0.092654
      dxz     :     0.007264
      dyz     :     0.013821
      dx2y2   :     0.031465
      dxy     :     0.034169
  1 C s       :     2.858984  s :     2.858984
      pz      :     1.029167  p :     3.120286
      px      :     1.035098
      py      :     1.056021
      dz2     :     0.006339  d :     0.086093
      dxz     :     0.005850
      dyz     :     0.010857
      dx2y2   :     0.027245
      dxy     :     0.035802
  2 C s       :     2.842736  s :     2.842736
      pz      :     0.936756  p :     2.942636
      px      :     1.109660
      py      :     0.896220
      dz2     :     0.011680  d :     0.175449
      dxz     :     0.015025
      dyz     :     0.036748
      dx2y2   :     0.060749
      dxy     :     0.051247
  3 C s       :     2.861110  s :     2.861110
      pz      :     1.057749  p :     3.147269
      px      :     1.023449
      py      :     1.066071
      dz2     :     0.006467  d :     0.087290
      dxz     :     0.006087
      dyz     :     0.010761
      dx2y2   :     0.027856
      dxy     :     0.036120
  4 C s       :     2.858290  s :     2.858290
      pz      :     0.953050  p :     3.066849
      px      :     1.052712
      py      :     1.061087
      dz2     :     0.006008  d :     0.092786
      dxz     :     0.006869
      dyz     :     0.014672
      dx2y2   :     0.032460
      dxy     :     0.032777
  5 C s       :     2.855227  s :     2.855227
      pz      :     1.016076  p :     3.119932
      px      :     1.064148
      py      :     1.039708
      dz2     :     0.006073  d :     0.089648
      dxz     :     0.013196
      dyz     :     0.004100
      dx2y2   :     0.035301
      dxy     :     0.030978
  6 H s       :     0.899261  s :     0.899261
      pz      :     0.013429  p :     0.066189
      px      :     0.033660
      py      :     0.019100
  7 H s       :     0.893916  s :     0.893916
      pz      :     0.015497  p :     0.068796
      px      :     0.034762
      py      :     0.018538
  8 H s       :     0.908309  s :     0.908309
      pz      :     0.016513  p :     0.067884
      px      :     0.033335
      py      :     0.018036
  9 H s       :     0.900305  s :     0.900305
      pz      :     0.013555  p :     0.066271
      px      :     0.034786
      py      :     0.017930
 10 H s       :     0.901939  s :     0.901939
      pz      :     0.015302  p :     0.067594
      px      :     0.010845
      py      :     0.041447
 11 O s       :     3.556321  s :     3.556321
      pz      :     1.822583  p :     4.591708
      px      :     1.399090
      py      :     1.370036
      dz2     :     0.003095  d :     0.021410
      dxz     :     0.000293
      dyz     :     0.003693
      dx2y2   :     0.009365
      dxy     :     0.004964
 12 H s       :     0.708711  s :     0.708711
      pz      :     0.010803  p :     0.061395
      px      :     0.039775
      py      :     0.010817

SPIN
  0 C s       :     0.000000  s :     0.000000
      pz      :     0.000000  p :     0.000000
      px      :     0.000000
      py      :     0.000000
      dz2     :     0.000000  d :     0.000000
      dxz     :     0.000000
      dyz     :     0.000000
      dx2y2   :     0.000000
      dxy     :     0.000000
  1 C s       :     0.000000  s :     0.000000
      pz      :     0.000000  p :     0.000000
      px      :     0.000000
      py      :     0.000000
      dz2     :     0.000000  d :     0.000000
      dxz     :     0.000000
      dyz     :     0.000000
      dx2y2   :     0.000000
      dxy     :     0.000000
  2 C s       :     0.000000  s :     0.000000
      pz      :     0.000000  p :     0.000000
      px      :     0.000000
      py      :     0.000000
      dz2     :     0.000000  d :     0.000000
      dxz     :     0.000000
      dyz     :     0.000000
      dx2y2   :     0.000000
      dxy     :     0.000000
  3 C s       :     0.000000  s :     0.000000
      pz      :     0.000000  p :     0.000000
      px      :     0.000000
      py      :     0.000000
      dz2     :     0.000000  d :     0.000000
      dxz     :     0.000000
      dyz     :     0.000000
      dx2y2   :     0.000000
      dxy     :     0.000000
  4 C s       :     0.000000  s :     0.000000
      pz      :     0.000000  p :     0.000000
      px      :     0.000000
      py      :     0.000000
      dz2     :     0.000000  d :     0.000000
      dxz     :     0.000000
      dyz     :     0.000000
      dx2y2   :     0.000000
      dxy     :     0.000000
  5 C s       :     0.000000  s :     0.000000
      pz      :     0.000000  p :     0.000000
      px      :     0.000000
      py      :     0.000000
      dz2     :     0.000000  d :     0.000000
      dxz     :     0.000000
      dyz     :     0.000000
      dx2y2   :     0.000000
      dxy     :     0.000000
  6 H s       :     0.000000  s :     0.000000
      pz      :     0.000000  p :     0.000000
      px      :     0.000000
      py      :     0.000000
  7 H s       :     0.000000  s :     0.000000
      pz      :     0.000000  p :     0.000000
      px      :     0.000000
      py      :     0.000000
  8 H s       :     0.000000  s :     0.000000
      pz      :     0.000000  p :     0.000000
      px      :     0.000000
      py      :     0.000000
  9 H s       :     0.000000  s :     0.000000
      pz      :     0.000000  p :     0.000000
      px      :     0.000000
      py      :     0.000000
 10 H s       :     0.000000  s :     0.000000
      pz      :     0.000000  p :     0.000000
      px      :     0.000000
      py      :     0.000000
 11 O s       :     0.000000  s :     0.000000
      pz      :     0.000000  p :     0.000000
      px      :     0.000000
      py      :     0.000000
      dz2     :     0.000000  d :     0.000000
      dxz     :     0.000000
      dyz     :     0.000000
      dx2y2   :     0.000000
      dxy     :     0.000000
 12 H s       :     0.000000  s :     0.000000
      pz      :     0.000000  p :     0.000000
      px      :     0.000000
      py      :     0.000000


                      *****************************
                      * MAYER POPULATION ANALYSIS *
                      *****************************

  NA   - Mulliken gross atomic population
  ZA   - Total nuclear charge
  QA   - Mulliken gross atomic charge
  VA   - Mayer's total valence
  BVA  - Mayer's bonded valence
  FA   - Mayer's free valence

  ATOM       NA         ZA         QA         VA         BVA        FA
  0 C      6.0099     6.0000    -0.0099     3.8736     3.8736    -0.0000
  1 C      6.0644     6.0000    -0.0644     3.8820     3.8820     0.0000
  2 C      5.7833     6.0000     0.2167     3.9475     3.9475     0.0000
  3 C      6.1045     6.0000    -0.1045     3.8573     3.8573     0.0000
  4 C      6.0148     6.0000    -0.0148     3.9030     3.9030     0.0000
  5 C      6.0351     6.0000    -0.0351     3.8548     3.8548    -0.0000
  6 H      0.9762     1.0000     0.0238     0.9847     0.9847    -0.0000
  7 H      0.9799     1.0000     0.0201     0.9981     0.9981    -0.0000
  8 H      1.0095     1.0000    -0.0095     0.9953     0.9953    -0.0000
  9 H      0.9795     1.0000     0.0205     0.9843     0.9843    -0.0000
 10 H      0.9821     1.0000     0.0179     0.9851     0.9851     0.0000
 11 O      8.3399     8.0000    -0.3399     2.1169     2.1169     0.0000
 12 H      0.7211     1.0000     0.2789     0.9260     0.9260     0.0000

  Mayer bond orders larger than 0.1
B(  0-C ,  1-C ) :   1.4104 B(  0-C ,  5-C ) :   1.3843 B(  0-C ,  6-H ) :   0.9872 
B(  1-C ,  2-C ) :   1.3612 B(  1-C ,  7-H ) :   0.9922 B(  2-C ,  3-C ) :   1.3394 
B(  2-C , 11-O ) :   1.1420 B(  3-C ,  4-C ) :   1.3964 B(  3-C ,  8-H ) :   0.9833 
B(  4-C ,  5-C ) :   1.4088 B(  4-C ,  9-H ) :   0.9841 B(  5-C , 10-H ) :   0.9917 
B( 11-O , 12-H ) :   0.8743 

-------
TIMINGS
-------

Total SCF time: 0 days 0 hours 2 min 38 sec 

Total time                  ....     158.262 sec
Sum of individual times     ....     157.430 sec  ( 99.5%)

Fock matrix formation       ....      72.140 sec  ( 45.6%)
  Split-RI-J                ....       6.041 sec  (  8.4% of F)
  Chain of spheres X        ....      59.675 sec  ( 82.7% of F)
  COS-X 1 center corr.      ....       0.000 sec  (  0.0% of F)
  XC integration            ....       6.390 sec  (  8.9% of F)
    Basis function eval.    ....       1.728 sec  ( 27.0% of XC)
    Density eval.           ....       1.219 sec  ( 19.1% of XC)
    XC-Functional eval.     ....       1.022 sec  ( 16.0% of XC)
    XC-Potential eval.      ....       2.343 sec  ( 36.7% of XC)
Diagonalization             ....       0.112 sec  (  0.1%)
Density matrix formation    ....       0.007 sec  (  0.0%)
Population analysis         ....       0.010 sec  (  0.0%)
Initial guess               ....       0.441 sec  (  0.3%)
Orbital Transformation      ....       0.000 sec  (  0.0%)
Orbital Orthonormalization  ....       0.000 sec  (  0.0%)
DIIS solution               ....       0.176 sec  (  0.1%)
Grid generation             ....       1.692 sec  (  1.1%)
SCF Stability Analysis      ....      82.852 sec  ( 52.4%)
------------------------------------------------------------------------------
                        ORCA TD-DFT/TDA CALCULATION
------------------------------------------------------------------------------

Input orbitals are from        ... /scratch/ch1tk/orca.15266/wB97XD3_def2-SVP_toluene_S0_TDA6S_1-30.gbw
CI-vector output               ... /scratch/ch1tk/orca.15266/wB97XD3_def2-SVP_toluene_S0_TDA6S_1-30.cis
Tamm-Dancoff approximation     ... operative
CIS-Integral strategy          ... AO-integrals
Integral handling              ... AO integral Direct
Max. core memory used          ... 512 MB
Reference state                ... UHF
Number of operators            ... 2
Orbital ranges used for CIS calculation:
 Operator 0:  Orbitals   7... 24  to  25...127
 Operator 1:  Orbitals   7... 24  to  25...127
XAS localization array:
 Operator 0:  Orbitals  -1... -1
 Operator 1:  Orbitals  -1... -1
-------------------
XC-INTEGRATION GRID
-------------------

General Integration Accuracy     IntAcc      ...  3.670
Radial Grid Type                 RadialGrid  ... Gauss-Chebyshev
Angular Grid (max. acc.)         AngularGrid ... Lebedev-50
Angular grid pruning method      GridPruning ... 3 (G Style)
Weight generation scheme         WeightScheme... Becke
Basis function cutoff            BFCut       ...    1.0000e-10
Integration weight cutoff        WCut        ...    1.0000e-14
Grids for H and He will be reduced by one unit

# of grid points (after initial pruning)     ...   7582 (   0.0 sec)
# of grid points (after weights+screening)   ...   7148 (   0.0 sec)
nearest neighbour list constructed           ...    0.0 sec
Grid point re-assignment to atoms done       ...    0.0 sec
Grid point division into batches done        ...    0.0 sec
Reduced shell lists constructed in    0.1 sec

Total number of grid points                  ...     7148
Total number of batches                      ...      117
Average number of points per batch           ...       61
Average number of grid points per atom       ...      550
Average number of shells per batch           ...    46.86 (78.09%)
Average number of basis functions per batch  ...    99.97 (78.11%)
Average number of large shells per batch     ...    38.18 (81.48%)
Average number of large basis fcns per batch ...    80.48 (80.50%)
Maximum spatial batch extension              ...  17.81, 15.26, 33.72 au
Average spatial batch extension              ...   4.58,  4.30,  7.21 au

---------------------
COSX-INTEGRATION GRID
---------------------

General Integration Accuracy     IntAcc      ...  2.670
Radial Grid Type                 RadialGrid  ... Gauss-Chebyshev
Angular Grid (max. acc.)         AngularGrid ... Lebedev-50
Angular grid pruning method      GridPruning ... 3 (G Style)
Weight generation scheme         WeightScheme... Becke
Basis function cutoff            BFCut       ...    1.0000e-10
Integration weight cutoff        WCut        ...    1.0000e-14
Grids for H and He will be reduced by one unit

# of grid points (after initial pruning)     ...   4338 (   0.0 sec)
# of grid points (after weights+screening)   ...   4109 (   0.0 sec)
nearest neighbour list constructed           ...    0.0 sec
Grid point re-assignment to atoms done       ...    0.0 sec
Grid point division into batches done        ...    0.0 sec
Reduced shell lists constructed in    0.0 sec

Total number of grid points                  ...     4109
Total number of batches                      ...       72
Average number of points per batch           ...       57
Average number of grid points per atom       ...      316
Average number of shells per batch           ...    47.33 (78.88%)
Average number of basis functions per batch  ...   101.52 (79.31%)
Average number of large shells per batch     ...    38.86 (82.11%)
Average number of large basis fcns per batch ...    82.62 (81.38%)
Maximum spatial batch extension              ...  13.79, 12.25, 29.42 au
Average spatial batch extension              ...   4.72,  4.56,  7.45 au


---------------
TD-DFT XC SETUP
---------------

DFT calculation                         ... on
Name of the grid file                   ... /scratch/ch1tk/orca.15266/wB97XD3_def2-SVP_toluene_S0_TDA6S_1-30.grid_cis.tmp
Exchange functional (SCF)               ... WB97X-D3
Exchange functional (TD-DFT)            ... WB97X-D3
Correlation functional (SCF)            ... WB97X-D3
Correlation functional (TD-DFT)         ... WB97X-D3
Hybrid DFT                              ... on
   Exchange mixing (SCF)                ...  0.196
   Exchange mixing (TD-DFT)             ...  0.196
   GGA exch. scaling(SCF)               ...  0.000
   GGA exch. scaling (TD-DFT)           ...  0.000
   GGA corr. scaling (SCF)              ...  1.000
   GGA corr. scaling (TD-DFT)           ...  1.000
Range-Separated Exchange                ... on
   Range Range separation parameter mu  .... 0.250
   Max. amount of RS exchange (SCF)     ...  0.804
   Max. amount of RS exchange (TD-DFT)  ...  0.804

Building densities             ... done
Calculating rho(r) on the grid ... done
Building xc-kernel on the grid ... done
                    *** TD-DFT CALCULATION INITIALIZED ***


------------------------
DAVIDSON-DIAGONALIZATION
------------------------

Dimension of the eigenvalue problem            ...   3708
Number of roots to be determined               ...      6
Maximum size of the expansion space            ...     60
Convergence tolerance for the residual         ...    1.000e-06
Convergence tolerance for the energies         ...    1.000e-06
Orthogonality tolerance                        ...    1.000e-14
Level Shift                                    ...    0.000e+00
Constructing the preconditioner                ... o.k.
Building the initial guess                     ... o.k.
Number of trial vectors determined             ...     60


                       ****Iteration    0****

   Memory handling for direct AO based CIS:
   Memory per vector needed      ...     1 MB
   Memory needed                 ...    23 MB
   Memory available              ...   512 MB
   Number of vectors per batch   ...   391
   Number of batches             ...     1
   Time for densities:     0.019
   Time for RI-J (Direct):     4.320
   Time for K (COSX):     3.802
   Time for XC-Integration:     2.344
   Time for Sigma-Completion:     0.082
   Size of expansion space: 18
   Lowest Energy          :     0.152324951747
   Maximum Energy change  :     0.203530769401 (vector 5)
   Maximum residual norm  :     0.005164543545

                       ****Iteration    1****
   Time for densities:     0.006
   Time for RI-J (Direct):     1.529
   Time for K (COSX):     2.991
   Time for XC-Integration:     0.832
   Time for Sigma-Completion:     0.028
   Size of expansion space: 24
   Lowest Energy          :     0.144702425435
   Maximum Energy change  :     0.008560407714 (vector 1)
   Maximum residual norm  :     0.000352088265

                       ****Iteration    2****
   Time for densities:     0.007
   Time for RI-J (Direct):     1.569
   Time for K (COSX):     2.776
   Time for XC-Integration:     0.776
   Time for Sigma-Completion:     0.026
   Size of expansion space: 30
   Lowest Energy          :     0.144217100536
   Maximum Energy change  :     0.000485324900 (vector 0)
   Maximum residual norm  :     0.000033333618

                       ****Iteration    3****
   Time for densities:     0.006
   Time for RI-J (Direct):     1.473
   Time for K (COSX):     2.726
   Time for XC-Integration:     0.781
   Time for Sigma-Completion:     0.026
   Size of expansion space: 36
   Lowest Energy          :     0.144206811580
   Maximum Energy change  :     0.000051571163 (vector 5)
   Maximum residual norm  :     0.000004438488

                       ****Iteration    4****
   Time for densities:     0.006
   Time for RI-J (Direct):     1.477
   Time for K (COSX):     2.742
   Time for XC-Integration:     0.779
   Time for Sigma-Completion:     0.026
   Size of expansion space: 42
   Lowest Energy          :     0.144206513223
   Maximum Energy change  :     0.000005330148 (vector 5)
   Maximum residual norm  :     0.000000688072

      *** CONVERGENCE OF RESIDUAL NORM REACHED ***

Storing the converged CI vectors               ... /scratch/ch1tk/orca.15266/wB97XD3_def2-SVP_toluene_S0_TDA6S_1-30.cis1

                 *** DAVIDSON DONE ***

Total time for solving the CIS problem:    31.271sec

-------------------------
TD-DFT/TDA EXCITED STATES
-------------------------

the weight of the individual excitations are printed if larger than 0.01

STATE  1:  E=   0.144207 au      3.924 eV    31649.7 cm**-1
    18a ->  25a  :     0.012738 (c= -0.11286090)
    21a ->  25a  :     0.061744 (c= -0.24848262)
    24a ->  25a  :     0.419397 (c=  0.64760889)
    18b ->  25b  :     0.012738 (c=  0.11286090)
    21b ->  25b  :     0.061744 (c=  0.24848262)
    24b ->  25b  :     0.419397 (c= -0.64760889)

STATE  2:  E=   0.154786 au      4.212 eV    33971.6 cm**-1
    23a ->  26a  :     0.146439 (c=  0.38267351)
    24a ->  26a  :     0.014514 (c=  0.12047470)
    24a ->  27a  :     0.316940 (c= -0.56297411)
    23b ->  26b  :     0.146439 (c= -0.38267351)
    24b ->  26b  :     0.014514 (c= -0.12047470)
    24b ->  27b  :     0.316940 (c=  0.56297411)

STATE  3:  E=   0.159969 au      4.353 eV    35109.1 cm**-1
    21a ->  25a  :     0.041741 (c= -0.20430654)
    24a ->  25a  :     0.448773 (c=  0.66990532)
    21b ->  25b  :     0.041741 (c= -0.20430654)
    24b ->  25b  :     0.448773 (c=  0.66990532)

STATE  4:  E=   0.160545 au      4.369 eV    35235.5 cm**-1
    24a ->  26a  :     0.472303 (c=  0.68724304)
    24a ->  27a  :     0.012533 (c=  0.11194896)
    24b ->  26b  :     0.472303 (c= -0.68724304)
    24b ->  27b  :     0.012533 (c= -0.11194896)

STATE  5:  E=   0.179178 au      4.876 eV    39325.1 cm**-1
    23a ->  26a  :     0.339732 (c= -0.58286518)
    24a ->  27a  :     0.156285 (c= -0.39532935)
    23b ->  26b  :     0.339732 (c=  0.58286518)
    24b ->  27b  :     0.156285 (c=  0.39532935)

STATE  6:  E=   0.198118 au      5.391 eV    43481.9 cm**-1
    23a ->  27a  :     0.128033 (c= -0.35781645)
    24a ->  26a  :     0.365867 (c= -0.60486976)
    23b ->  27b  :     0.128033 (c= -0.35781645)
    24b ->  26b  :     0.365867 (c= -0.60486976)


-----------------------------
TD-DFT/TDA-EXCITATION SPECTRA
-----------------------------

Center of mass = ( -0.0106,  0.0429,  0.0000)
Calculating the Dipole integrals                  ... done
Transforming integrals                            ... done
Calculating the Linear Momentum integrals         ... done
Transforming integrals                            ... done
Calculating angular momentum integrals            ... done
Transforming integrals                            ... done

-----------------------------------------------------------------------------
         ABSORPTION SPECTRUM VIA TRANSITION ELECTRIC DIPOLE MOMENTS
-----------------------------------------------------------------------------
State   Energy  Wavelength   fosc         T2         TX        TY        TZ  
        (cm-1)    (nm)                  (au**2)     (au)      (au)      (au) 
-----------------------------------------------------------------------------
   1   31649.7    316.0   0.000000000   0.00000  -0.00000  -0.00000   0.00000
   2   33971.6    294.4   0.000000000   0.00000  -0.00000   0.00000  -0.00000
   3   35109.1    284.8   0.000001647   0.00002  -0.00000  -0.00000  -0.00393
   4   35235.5    283.8   0.000000000   0.00000  -0.00000   0.00000   0.00000
   5   39325.1    254.3   0.000000000   0.00000   0.00000   0.00000  -0.00000
   6   43481.9    230.0   0.040367604   0.30563  -0.54921   0.06329   0.00000

-----------------------------------------------------------------------------
         ABSORPTION SPECTRUM VIA TRANSITION VELOCITY DIPOLE MOMENTS
-----------------------------------------------------------------------------
State   Energy  Wavelength   fosc         P2         PX        PY        PZ  
        (cm-1)    (nm)                  (au**2)     (au)      (au)      (au) 
-----------------------------------------------------------------------------
   1   31649.7    316.0   0.000000000   0.00000  -0.00000   0.00000   0.00000
   2   33971.6    294.4   0.000000000   0.00000  -0.00000  -0.00000   0.00000
   3   35109.1    284.8   0.012277251   0.00295   0.00000   0.00000   0.05428
   4   35235.5    283.8   0.000000000   0.00000   0.00000   0.00000  -0.00000
   5   39325.1    254.3   0.000000000   0.00000   0.00000   0.00000   0.00000
   6   43481.9    230.0   0.001008016   0.00030  -0.01478  -0.00901  -0.00000

-------------------------------------------------------------------
                             CD SPECTRUM
-------------------------------------------------------------------
State   Energy Wavelength       R         MX        MY        MZ   
        (cm-1)   (nm)       (1e40*cgs)   (au)      (au)      (au)  
-------------------------------------------------------------------
   1   31649.7    316.0     -0.00000   0.00000  -0.00000  -0.00000
   2   33971.6    294.4      0.00000  -0.00000   0.00000   0.00000
   3   35109.1    284.8     -0.00019  -0.24336   0.12604   0.00000
   4   35235.5    283.8     -0.00000   0.00000  -0.00000  -0.00000
   5   39325.1    254.3      0.00000  -0.00000   0.00000  -0.00000
   6   43481.9    230.0      0.00002  -0.00000   0.00000  -0.24015

Total run time:       31.750 sec

           *** ORCA-CIS/TD-DFT FINISHED WITHOUT ERROR ***

-----------------------
CIS/TD-DFT TOTAL ENERGY
-----------------------

    E(SCF)  =   -307.100686764 Eh
    DE(CIS) =      0.144206513 Eh (Root  1)
    ----------------------------- ---------
    E(tot)  =   -306.956480250 Eh



-------------------------------------------------------------------------------
                          DFT DISPERSION CORRECTION                            
                                                                               
                              DFTD3 V3.1  Rev 1                                
                              USING zero damping                               
-------------------------------------------------------------------------------
The omegaB97X-D3 functional is recognized. Fit by Chai et al.
Active option DFTDOPT                   ...         3   

molecular C6(AA) [au] = 1991.347475 


            DFT-D V3
 parameters
 s6 scaling factor         :     1.0000 
 rs6 scaling factor        :     1.2810 
 s8 scaling factor         :     1.0000 
 rs8 scaling factor        :     1.0940 
 Damping factor alpha6     :    14.0000 
 Damping factor alpha8     :    16.0000 
 ad hoc parameters k1-k3   :    16.0000     1.3333    -4.0000 

 Edisp/kcal,au: -1.822936809037  -0.002905034410 
 E6   /kcal   :  -0.796380551 
 E8   /kcal   :  -1.026556258 
 % E8         :  56.313321082 

-------------------------   ----------------
Dispersion correction           -0.002905034
-------------------------   ----------------


-------------------------   --------------------
FINAL SINGLE POINT ENERGY      -307.103591798003
-------------------------   --------------------


                            ***************************************
                            *     ORCA property calculations      *
                            ***************************************

                                    ---------------------
                                    Active property flags
                                    ---------------------
   (+) Dipole Moment


------------------------------------------------------------------------------
                       ORCA ELECTRIC PROPERTIES CALCULATION
------------------------------------------------------------------------------

Dipole Moment Calculation                       ... on
Quadrupole Moment Calculation                   ... off
Polarizability Calculation                      ... off
GBWName                                         ... /scratch/ch1tk/orca.15266/wB97XD3_def2-SVP_toluene_S0_TDA6S_1-30.gbw
Electron density file                           ... /scratch/ch1tk/orca.15266/wB97XD3_def2-SVP_toluene_S0_TDA6S_1-30.scfp.tmp
The origin for moment calculation is the CENTER OF MASS  = (-0.010635,  0.042921  0.000000)

-------------
DIPOLE MOMENT
-------------
                                X             Y             Z
Electronic contribution:     -0.49465       2.02117      -0.00000
Nuclear contribution   :      1.12119      -1.89828       0.00000
                        -----------------------------------------
Total Dipole Moment    :      0.62655       0.12289      -0.00000
                        -----------------------------------------
Magnitude (a.u.)       :      0.63848
Magnitude (Debye)      :      1.62290


Timings for individual modules:

Sum of individual times         ...      192.936 sec (=   3.216 min)
GTO integral calculation        ...        1.463 sec (=   0.024 min)   0.8 %
SCF iterations                  ...      159.698 sec (=   2.662 min)  82.8 %
CIS module                      ...       31.776 sec (=   0.530 min)  16.5 %
                             ****ORCA TERMINATED NORMALLY****
TOTAL RUN TIME: 0 days 0 hours 3 minutes 13 seconds 182 msec
