
                                 *****************
                                 * O   R   C   A *
                                 *****************

           --- An Ab Initio, DFT and Semiempirical electronic structure package ---

                  #######################################################
                  #                        -***-                        #
                  #  Department of molecular theory and spectroscopy    #
                  #              Directorship: Frank Neese              #
                  # Max Planck Institute for Chemical Energy Conversion #
                  #                  D-45470 Muelheim/Ruhr              #
                  #                       Germany                       #
                  #                                                     #
                  #                  All rights reserved                #
                  #                        -***-                        #
                  #######################################################


                         Program Version 4.0.1.2 - RELEASE -


 With contributions from (in alphabetic order):
   Daniel Aravena         : Magnetic Properties
   Michael Atanasov       : Ab Initio Ligand Field Theory
   Ute Becker             : Parallelization
   Martin Brehm           : Molecular dynamics
   Dmytro Bykov           : SCF Hessian
   Vijay G. Chilkuri      : MRCI spin determinant printing
   Dipayan Datta          : RHF DLPNO-CCSD density
   Achintya Kumar Dutta   : EOM-CC, STEOM-CC
   Dmitry Ganyushin       : Spin-Orbit,Spin-Spin,Magnetic field MRCI
   Yang Guo               : DLPNO-NEVPT2, CIM, IAO-localization
   Andreas Hansen         : Spin unrestricted coupled pair/coupled cluster methods
   Lee Huntington         : MR-EOM, pCC
   Robert Izsak           : Overlap fitted RIJCOSX, COSX-SCS-MP3, EOM
   Christian Kollmar      : KDIIS, OOCD, Brueckner-CCSD(T), CCSD density
   Simone Kossmann        : Meta GGA functionals, TD-DFT gradient, OOMP2, MP2 Hessian
   Martin Krupicka        : AUTO-CI
   Dagmar Lenk            : GEPOL surface
   Dimitrios Liakos       : Extrapolation schemes; parallel MDCI
   Dimitrios Manganas     : ROCIS; embedding schemes
   Dimitrios Pantazis     : SARC Basis sets
   Taras Petrenko         : DFT Hessian,TD-DFT gradient, ASA, ECA, R-Raman, ABS, FL, XAS/XES, NRVS
   Peter Pinski           : DLPNO-MP2
   Christoph Reimann      : Effective Core Potentials
   Marius Retegan         : Local ZFS, SOC
   Christoph Riplinger    : Optimizer, TS searches, QM/MM, DLPNO-CCSD(T), (RO)-DLPNO pert. Triples
   Tobias Risthaus        : Range-separated hybrids, TD-DFT gradient, RPA, STAB
   Michael Roemelt        : Restricted open shell CIS
   Masaaki Saitow         : Open-shell DLPNO
   Barbara Sandhoefer     : DKH picture change effects
   Kantharuban Sivalingam : CASSCF convergence, NEVPT2, FIC-MRCI
   Georgi Stoychev        : AutoAux
   Boris Wezisla          : Elementary symmetry handling
   Frank Wennmohs         : Technical directorship


 We gratefully acknowledge several colleagues who have allowed us to
 interface, adapt or use parts of their codes:
   Stefan Grimme, W. Hujo, H. Kruse,             : VdW corrections, initial TS optimization,
                  C. Bannwarth                     DFT functionals, gCP, sTDA/sTD-DF
   Ed Valeev                                     : LibInt (2-el integral package), F12 methods
   Garnet Chan, S. Sharma, J. Yang, R. Olivares  : DMRG
   Ulf Ekstrom                                   : XCFun DFT Library
   Mihaly Kallay                                 : mrcc  (arbitrary order and MRCC methods)
   Andreas Klamt, Michael Diedenhofen            : otool_cosmo (COSMO solvation model)
   Jiri Pittner, Ondrej Demel                    : Mk-CCSD
   Frank Weinhold                                : gennbo (NPA and NBO analysis)
   Christopher J. Cramer and Donald G. Truhlar   : smd solvation model


 Your calculation uses the libint2 library for the computation of 2-el integrals
 For citations please refer to: http://libint.valeyev.net

 This ORCA versions uses:
   CBLAS   interface :  Fast vector & matrix operations
   LAPACKE interface :  Fast linear algebra routines
   SCALAPACK package :  Parallel linear algebra routines


Your calculation utilizes the atom-pairwise dispersion correction
with the zero-damping scheme (D30)
Cite in your paper:
S.Grimme, J.Antony, S.Ehrlich and H.Krieg, J.Chem.Phys., 132, (2010), 154104 
   

XCFun DFT library Copyright 2009-2010 Ulf Ekstrom and contributors.
See http://admol.org/xcfun for more information. This is free soft-
ware; see the source code for copying conditions. There is ABSOLUTELY
NO WARRANTY; not even for MERCHANTABILITY or FITNESS FOR A PARTICULAR
PURPOSE. For details see the documentation. Scientific users of this 
library should cite U. Ekstrom, L. Visscher, R. Bast, A. J. Thorvald-
sen and K. Ruud; J.Chem.Theor.Comp. 2010, DOI: 10.1021/ct100117s
XCFun Version 0.99 
Your calculation utilizes the basis: def2-SVP
   F. Weigend and R. Ahlrichs, Phys. Chem. Chem. Phys. 7, 3297 (2005).

Your calculation utilizes the auxiliary basis: def2/JK
   H-Ba, Hf-Rn: F. Weigend, J. Comput. Chem. 29, 167 (2008).

WARNING: Overwriting auxiliary coulomb basis with /JK basis!
================================================================================
                                        WARNINGS
                       Please study these warnings very carefully!
================================================================================

Warning: TCutStore was < 0. Adjusted to Thresh (uncritical)
INFO   : Checking CIS options ...

WARNING: CIS/ROCIS methods need fully converged wavefunctions
  ===> : Setting SCFConvForced true
         You can overwrite this default with %scf ConvForced false 


INFO   : the flag for use of LIBINT has been found!

================================================================================
                                       INPUT FILE
================================================================================
NAME = /scratch/ch1tk/orca.15439/wB97XD3_def2-SVP_toluene_S0_TDA6S_2-60.inp
|  1> ! UKS wB97X-D3 def2-SVP RIJCOSX def2/JK SlowConv
|  2>  
|  3> 
|  4> %scf
|  5> 	MaxIter		500
|  6> 	STABPerform	True
|  7> end
|  8> 
|  9> %tddft
| 10> 	NRoots 6
| 11> end
| 12> 
| 13> * xyz 0 1
| 14>  C                 -1.18578599   -1.17301779    0.00000000
| 15>  C                 -1.22528521    0.21672485    0.00000000
| 16>  C                 -0.03021307    0.94488843    0.00000000
| 17>  C                  1.19387265    0.26897053    0.00000000
| 18>  C                  1.21998389   -1.12396818    0.00000000
| 19>  C                  0.03366349   -1.85245673    0.00000000
| 20>  H                 -2.12142076   -1.73821028    0.00000000
| 21>  H                 -2.17044776    0.76362561    0.00000000
| 22>  H                  2.12866956    0.83920121    0.00000000
| 23>  H                  2.18175171   -1.64285600    0.00000000
| 24>  H                  0.05704252   -2.94432740    0.00000000
| 25>  O                 -0.11105943    2.29589847    0.00000000
| 26>  H                  2.28581075    3.30337717    0.00000000
| 27> end
| 28> 
| 29>                          ****END OF INPUT****
================================================================================

                       ****************************
                       * Single Point Calculation *
                       ****************************

---------------------------------
CARTESIAN COORDINATES (ANGSTROEM)
---------------------------------
  C     -1.185786   -1.173018    0.000000
  C     -1.225285    0.216725    0.000000
  C     -0.030213    0.944888    0.000000
  C      1.193873    0.268971    0.000000
  C      1.219984   -1.123968    0.000000
  C      0.033663   -1.852457    0.000000
  H     -2.121421   -1.738210    0.000000
  H     -2.170448    0.763626    0.000000
  H      2.128670    0.839201    0.000000
  H      2.181752   -1.642856    0.000000
  H      0.057043   -2.944327    0.000000
  O     -0.111059    2.295898    0.000000
  H      2.285811    3.303377    0.000000

----------------------------
CARTESIAN COORDINATES (A.U.)
----------------------------
  NO LB      ZA    FRAG     MASS         X           Y           Z
   0 C     6.0000    0    12.011   -2.240811   -2.216682    0.000000
   1 C     6.0000    0    12.011   -2.315453    0.409551    0.000000
   2 C     6.0000    0    12.011   -0.057094    1.785580    0.000000
   3 C     6.0000    0    12.011    2.256092    0.508281    0.000000
   4 C     6.0000    0    12.011    2.305435   -2.123992    0.000000
   5 C     6.0000    0    12.011    0.063615   -3.500636    0.000000
   6 H     1.0000    0     1.008   -4.008904   -3.284741    0.000000
   7 H     1.0000    0     1.008   -4.101552    1.443043    0.000000
   8 H     1.0000    0     1.008    4.022602    1.585860    0.000000
   9 H     1.0000    0     1.008    4.122913   -3.104548    0.000000
  10 H     1.0000    0     1.008    0.107795   -5.563972    0.000000
  11 O     8.0000    0    15.999   -0.209872    4.338619    0.000000
  12 H     1.0000    0     1.008    4.319556    6.242478    0.000000

--------------------------------
INTERNAL COORDINATES (ANGSTROEM)
--------------------------------
 C      0   0   0     0.000000000000     0.00000000     0.00000000
 C      1   0   0     1.390303849457     0.00000000     0.00000000
 C      2   1   0     1.399435464408   119.72614521     0.00000000
 C      3   2   1     1.398302848974   119.73915203     0.00000000
 C      4   3   2     1.393183421761   119.98059071     0.00000000
 C      5   4   3     1.392139238344   120.47909682     0.00000000
 H      1   2   3     1.093094219903   119.50705551   180.00000085
 H      2   1   3     1.091985662548   121.68304388   180.00000000
 H      4   3   2     1.094992370457   119.70992277   180.00000000
 H      5   4   3     1.092813757843   119.42141969   180.00000000
 H      6   5   4     1.092120936092   120.32638097   180.00000085
 O      3   2   1     1.353426858794   117.92958877   180.00000000
 H      9   4   3     2.469181345190   125.03222204     0.00000000

---------------------------
INTERNAL COORDINATES (A.U.)
---------------------------
 C      0   0   0     0.000000000000     0.00000000     0.00000000
 C      1   0   0     2.627293518410     0.00000000     0.00000000
 C      2   1   0     2.644549769828   119.72614521     0.00000000
 C      3   2   1     2.642409436842   119.73915203     0.00000000
 C      4   3   2     2.632735121448   119.98059071     0.00000000
 C      5   4   3     2.630761900756   120.47909682     0.00000000
 H      1   2   3     2.065648714189   119.50705551   180.00000085
 H      2   1   3     2.063553844385   121.68304388   180.00000000
 H      4   3   2     2.069235698897   119.70992277   180.00000000
 H      5   4   3     2.065118717705   119.42141969   180.00000000
 H      6   5   4     2.063809474335   120.32638097   180.00000085
 O      3   2   1     2.557606105415   117.92958877   180.00000000
 H      9   4   3     4.666076517397   125.03222204     0.00000000

---------------------
BASIS SET INFORMATION
---------------------
There are 3 groups of distinct atoms

 Group   1 Type C   : 7s4p1d contracted to 3s2p1d pattern {511/31/1}
 Group   2 Type H   : 4s1p contracted to 2s1p pattern {31/1}
 Group   3 Type O   : 7s4p1d contracted to 3s2p1d pattern {511/31/1}

Atom   0C    basis set group =>   1
Atom   1C    basis set group =>   1
Atom   2C    basis set group =>   1
Atom   3C    basis set group =>   1
Atom   4C    basis set group =>   1
Atom   5C    basis set group =>   1
Atom   6H    basis set group =>   2
Atom   7H    basis set group =>   2
Atom   8H    basis set group =>   2
Atom   9H    basis set group =>   2
Atom  10H    basis set group =>   2
Atom  11O    basis set group =>   3
Atom  12H    basis set group =>   2
-------------------------------
AUXILIARY BASIS SET INFORMATION
-------------------------------
There are 3 groups of distinct atoms

 Group   1 Type C   : 14s10p6d2f1g contracted to 10s8p5d1f1g pattern {5111111111/31111111/21111/2/1}
 Group   2 Type H   : 4s2p2d contracted to 2s2p2d pattern {31/11/11}
 Group   3 Type O   : 14s10p6d2f1g contracted to 10s8p4d2f1g pattern {5111111111/31111111/3111/11/1}

Atom   0C    basis set group =>   1
Atom   1C    basis set group =>   1
Atom   2C    basis set group =>   1
Atom   3C    basis set group =>   1
Atom   4C    basis set group =>   1
Atom   5C    basis set group =>   1
Atom   6H    basis set group =>   2
Atom   7H    basis set group =>   2
Atom   8H    basis set group =>   2
Atom   9H    basis set group =>   2
Atom  10H    basis set group =>   2
Atom  11O    basis set group =>   3
Atom  12H    basis set group =>   2
------------------------------------------------------------------------------
                           ORCA GTO INTEGRAL CALCULATION
                           -- RI-GTO INTEGRALS CHOSEN --
------------------------------------------------------------------------------

                         BASIS SET STATISTICS AND STARTUP INFO

Gaussian basis set:
 # of primitive gaussian shells          ...  114
 # of primitive gaussian functions       ...  210
 # of contracted shells                  ...   60
 # of contracted basis functions         ...  128
 Highest angular momentum                ...    2
 Maximum contraction depth               ...    5
Auxiliary gaussian basis set:
 # of primitive gaussian shells          ...  279
 # of primitive gaussian functions       ...  799
 # of contracted shells                  ...  211
 # of contracted aux-basis functions     ...  635
 Highest angular momentum                ...    4
 Maximum contraction depth               ...    5
Ratio of auxiliary to basis functions    ...  4.96
Integral package used                  ... LIBINT
 One Electron integrals                  ... done
 Ordering auxiliary basis shells         ... done
 Integral threshhold             Thresh  ...  1.000e-10
 Primitive cut-off               TCut    ...  1.000e-11
 Pre-screening matrix                    ... done
 Shell pair data                         ... 
 Ordering of the shell pairs             ... done (   0.000 sec) 1753 of 1830 pairs
 Determination of significant pairs      ... done (   0.000 sec)
 Creation of shell pair data             ... done (   0.001 sec)
 Storage of shell pair data              ... done (   0.001 sec)
 Shell pair data done in (   0.002 sec)
 Computing two index integrals           ... done
 Cholesky decomposition of the V-matrix  ... done


Timings:
 Total evaluation time                   ...   0.222 sec (  0.004 min)
 One electron matrix time                ...   0.016 sec (  0.000 min) =  7.1%
 Schwartz matrix evaluation time         ...   0.153 sec (  0.003 min) = 68.8%
 Two index repulsion integral time       ...   0.015 sec (  0.000 min) =  6.7%
 Cholesky decomposition of V             ...   0.014 sec (  0.000 min) =  6.2%
 Three index repulsion integral time     ...   0.000 sec (  0.000 min) =  0.0%

-------------------------------------------------------------------------------
                                 ORCA SCF
-------------------------------------------------------------------------------

------------
SCF SETTINGS
------------
Hamiltonian:
 Density Functional     Method          .... DFT(GTOs)
 Exchange Functional    Exchange        .... WB97X-D3
 Correlation Functional Correlation     .... WB97X-D3
 Gradients option       PostSCFGGA      .... off
 Hybrid DFT is turned on
   Fraction HF Exchange ScalHFX         ....  0.195728
   Scaling of DF-GGA-X  ScalDFX         ....  0.000000
   Scaling of DF-GGA-C  ScalDFC         ....  1.000000
   Scaling of DF-LDA-C  ScalLDAC        ....  1.000000
   Perturbative correction              ....  0.000000
 Long-range corrected/Screened/Range-Separated Hybrid DFT is turned on
   Amount of maximum screened exact exchange              ....  0.804272
   Range separation parameter mu (erf(mu*r12)/r12)        ....  0.250000
 RI-approximation to the Coulomb term is turned on
   Number of auxiliary basis functions  .... 635
   RIJ-COSX (HFX calculated with COS-X)).... on


General Settings:
 Integral files         IntName         .... /scratch/ch1tk/orca.15439/wB97XD3_def2-SVP_toluene_S0_TDA6S_2-60
 Hartree-Fock type      HFTyp           .... UHF
 Total Charge           Charge          ....    0
 Multiplicity           Mult            ....    1
 Number of Electrons    NEL             ....   50
 Basis Dimension        Dim             ....  128
 Nuclear Repulsion      ENuc            ....    266.6121497457 Eh

Convergence Acceleration:
 DIIS                   CNVDIIS         .... on
   Start iteration      DIISMaxIt       ....     0
   Startup error        DIISStart       ....  0.200000
   # of expansion vecs  DIISMaxEq       ....     5
   Bias factor          DIISBfac        ....   1.050
   Max. coefficient     DIISMaxC        ....  10.000
 Newton-Raphson         CNVNR           .... off
 SOSCF                  CNVSOSCF        .... off
 Level Shifting         CNVShift        .... on
   Level shift para.    LevelShift      ....    0.2500
   Turn off err/grad.   ShiftErr        ....    0.0000
 Zerner damping         CNVZerner       .... off
 Static damping         CNVDamp         .... on
   Fraction old density DampFac         ....    0.8500
   Max. Damping (<1)    DampMax         ....    0.9800
   Min. Damping (>=0)   DampMin         ....    0.0000
   Turn off err/grad.   DampErr         ....    0.0300
 Fernandez-Rico         CNVRico         .... off

SCF Procedure:
 Maximum # iterations   MaxIter         ....   500
 SCF integral mode      SCFMode         .... Direct
   Integral package                     .... LIBINT
 Reset frequeny         DirectResetFreq ....    20
 Integral Threshold     Thresh          ....  1.000e-10 Eh
 Primitive CutOff       TCut            ....  1.000e-11 Eh

Convergence Tolerance:
 Convergence Check Mode ConvCheckMode   .... Total+1el-Energy
 Convergence forced     ConvForced      .... 1
 Energy Change          TolE            ....  1.000e-06 Eh
 1-El. energy change                    ....  1.000e-03 Eh
 DIIS Error             TolErr          ....  1.000e-06


Diagonalization of the overlap matrix:
Smallest eigenvalue                        ... 2.790e-04
Time for diagonalization                   ...    0.004 sec
Threshold for overlap eigenvalues          ... 1.000e-08
Number of eigenvalues below threshold      ... 0
Time for construction of square roots      ...    0.001 sec
Total time needed                          ...    0.005 sec

-------------------
DFT GRID GENERATION
-------------------

General Integration Accuracy     IntAcc      ...  4.340
Radial Grid Type                 RadialGrid  ... Gauss-Chebyshev
Angular Grid (max. acc.)         AngularGrid ... Lebedev-110
Angular grid pruning method      GridPruning ... 3 (G Style)
Weight generation scheme         WeightScheme... Becke
Basis function cutoff            BFCut       ...    1.0000e-10
Integration weight cutoff        WCut        ...    1.0000e-14
Grids for H and He will be reduced by one unit

# of grid points (after initial pruning)     ...  16416 (   0.0 sec)
# of grid points (after weights+screening)   ...  15365 (   0.0 sec)
nearest neighbour list constructed           ...    0.0 sec
Grid point re-assignment to atoms done       ...    0.0 sec
Grid point division into batches done        ...    0.0 sec
Reduced shell lists constructed in    0.3 sec

Total number of grid points                  ...    15365
Total number of batches                      ...      245
Average number of points per batch           ...       62
Average number of grid points per atom       ...     1182
Average number of shells per batch           ...    43.79 (72.99%)
Average number of basis functions per batch  ...    93.18 (72.80%)
Average number of large shells per batch     ...    35.04 (80.01%)
Average number of large basis fcns per batch ...    73.68 (79.07%)
Maximum spatial batch extension              ...  22.57, 16.74, 25.60 au
Average spatial batch extension              ...   4.07,  3.55,  5.53 au

Time for grid setup =    0.313 sec

------------------------------
INITIAL GUESS: MODEL POTENTIAL
------------------------------
Loading Hartree-Fock densities                     ... done
Calculating cut-offs                               ... done
Setting up the integral package                    ... done
Initializing the effective Hamiltonian             ... done
Starting the Coulomb interaction                   ... done (   0.1 sec)
Reading the grid                                   ... done
Mapping shells                                     ... done
Starting the XC term evaluation                    ... done (   0.3 sec)
  promolecular density results
     # of electrons  =     49.999681216
     EX              =    -40.495063083
     EC              =     -1.630930973
     EX+EC           =    -42.125994056
Transforming the Hamiltonian                       ... done (   0.0 sec)
Diagonalizing the Hamiltonian                      ... done (   0.0 sec)
Back transforming the eigenvectors                 ... done (   0.0 sec)
Now organizing SCF variables                       ... done
                      ------------------
                      INITIAL GUESS DONE (   0.8 sec)
                      ------------------
--------------------
COSX GRID GENERATION
--------------------

General Integration Accuracy     IntAcc      ...  3.340
Radial Grid Type                 RadialGrid  ... Gauss-Chebyshev
Angular Grid (max. acc.)         AngularGrid ... Lebedev-50
Angular grid pruning method      GridPruning ... 3 (G Style)
Weight generation scheme         WeightScheme... Becke
Basis function cutoff            BFCut       ...    1.0000e-10
Integration weight cutoff        WCut        ...    1.0000e-14
Grids for H and He will be reduced by one unit

# of grid points (after initial pruning)     ...   5980 (   0.0 sec)
# of grid points (after weights+screening)   ...   5662 (   0.0 sec)
nearest neighbour list constructed           ...    0.0 sec
Grid point re-assignment to atoms done       ...    0.0 sec
Grid point division into batches done        ...    0.0 sec
Reduced shell lists constructed in    0.1 sec

Total number of grid points                  ...     5662
Total number of batches                      ...       94
Average number of points per batch           ...       60
Average number of grid points per atom       ...      436
Average number of shells per batch           ...    46.66 (77.77%)
Average number of basis functions per batch  ...   100.20 (78.28%)
Average number of large shells per batch     ...    38.43 (82.36%)
Average number of large basis fcns per batch ...    81.82 (81.66%)
Maximum spatial batch extension              ...  16.72, 14.62, 25.32 au
Average spatial batch extension              ...   5.01,  4.55,  7.48 au

Overlap Fitting                  UseSFitting ... on
Constructing numerical overlap ... done (      0.1 sec)
Inverting numerical overlap    ... done (      0.0 sec)
Obtaining analytic overlap     ... done (      0.0 sec)
Final contraction and storage  ... done (      0.0 sec)


General Integration Accuracy     IntAcc      ...  3.670
Radial Grid Type                 RadialGrid  ... Gauss-Chebyshev
Angular Grid (max. acc.)         AngularGrid ... Lebedev-50
Angular grid pruning method      GridPruning ... 3 (G Style)
Weight generation scheme         WeightScheme... Becke
Basis function cutoff            BFCut       ...    1.0000e-10
Integration weight cutoff        WCut        ...    1.0000e-14
Grids for H and He will be reduced by one unit

# of grid points (after initial pruning)     ...   7582 (   0.0 sec)
# of grid points (after weights+screening)   ...   7159 (   0.0 sec)
nearest neighbour list constructed           ...    0.0 sec
Grid point re-assignment to atoms done       ...    0.0 sec
Grid point division into batches done        ...    0.0 sec
Reduced shell lists constructed in    0.1 sec

Total number of grid points                  ...     7159
Total number of batches                      ...      117
Average number of points per batch           ...       61
Average number of grid points per atom       ...      551
Average number of shells per batch           ...    46.06 (76.77%)
Average number of basis functions per batch  ...    98.47 (76.93%)
Average number of large shells per batch     ...    37.32 (81.03%)
Average number of large basis fcns per batch ...    78.64 (79.87%)
Maximum spatial batch extension              ...  17.81, 15.26, 30.56 au
Average spatial batch extension              ...   4.63,  4.29,  7.21 au

Overlap Fitting                  UseSFitting ... on
Constructing numerical overlap ... done (      0.1 sec)
Inverting numerical overlap    ... done (      0.0 sec)
Obtaining analytic overlap     ... done (      0.0 sec)
Final contraction and storage  ... done (      0.0 sec)


General Integration Accuracy     IntAcc      ...  4.010
Radial Grid Type                 RadialGrid  ... Gauss-Chebyshev
Angular Grid (max. acc.)         AngularGrid ... Lebedev-110
Angular grid pruning method      GridPruning ... 3 (G Style)
Weight generation scheme         WeightScheme... Becke
Basis function cutoff            BFCut       ...    1.0000e-10
Integration weight cutoff        WCut        ...    1.0000e-14
Grids for H and He will be reduced by one unit

# of grid points (after initial pruning)     ...  14238 (   0.0 sec)
# of grid points (after weights+screening)   ...  13340 (   0.0 sec)
nearest neighbour list constructed           ...    0.0 sec
Grid point re-assignment to atoms done       ...    0.0 sec
Grid point division into batches done        ...    0.0 sec
Reduced shell lists constructed in    0.2 sec

Total number of grid points                  ...    13340
Total number of batches                      ...      214
Average number of points per batch           ...       62
Average number of grid points per atom       ...     1026
Average number of shells per batch           ...    44.26 (73.76%)
Average number of basis functions per batch  ...    94.15 (73.56%)
Average number of large shells per batch     ...    35.52 (80.26%)
Average number of large basis fcns per batch ...    74.62 (79.25%)
Maximum spatial batch extension              ...  21.45, 16.04, 31.02 au
Average spatial batch extension              ...   4.16,  3.62,  5.58 au

Overlap Fitting                  UseSFitting ... on
Constructing numerical overlap ... done (      0.1 sec)
Inverting numerical overlap    ... done (      0.0 sec)
Obtaining analytic overlap     ... done (      0.0 sec)
Final contraction and storage  ... done (      0.0 sec)

Time for X-Grid setup             =    0.788 sec
--------------
SCF ITERATIONS
--------------
ITER       Energy         Delta-E        Max-DP      RMS-DP      [F,P]     Damp
               ***  Starting incremental Fock matrix formation  ***
  0   -306.5275095795   0.000000000000 0.04806475  0.00101088  0.3138165 0.8500
  1   -306.6309010201  -0.103391440586 0.04799755  0.00097950  0.1955277 0.8500
                               ***Turning on DIIS***
  2   -306.6981798745  -0.067278854450 0.03905993  0.00079526  0.1005668 0.8500
  3   -306.7333397340  -0.035159859506 0.02057183  0.00054812  0.0568581 0.8500
  4   -306.7576973094  -0.024357575361 0.01167853  0.00039136  0.0429863 0.8500
  5   -306.7783918454  -0.020694536032 0.00992124  0.00029746  0.0338487 0.8500
  6   -306.7962533482  -0.017861502804 0.05509938  0.00160474  0.0276396 0.0000
  7   -306.9040009226  -0.107747574336 0.00194693  0.00003797  0.0402990 0.8500
  8   -306.9044318340  -0.000430911470 0.00278214  0.00005100  0.0337886 0.8500
  9   -306.9048517744  -0.000419940384 0.01281732  0.00024445  0.0247861 0.0000
 10   -306.9055623956  -0.000710621144 0.00283174  0.00006809  0.0157650 0.0000
 11   -306.9058310090  -0.000268613403 0.00106018  0.00003532  0.0041854 0.0000
 12   -306.9058683311  -0.000037322156 0.00045083  0.00002047  0.0006381 0.0000
               *** Restarting incremental Fock matrix formation ***
                                   *** Resetting DIIS ***
 13   -306.9058866839  -0.000018352754 0.00015399  0.00000768  0.0003446 0.0000
 14   -306.9058886035  -0.000001919668 0.00013058  0.00000698  0.0002627 0.0000
 15   -306.9058896796  -0.000001076025 0.00010674  0.00000366  0.0001757 0.0000
 16   -306.9058900603  -0.000000380757 0.00005675  0.00000251  0.0001322 0.0000
                 **** Energy Check signals convergence ****

               *****************************************************
               *                     SUCCESS                       *
               *           SCF CONVERGED AFTER  17 CYCLES          *
               *****************************************************


------------------------------------------------------------------------------
                          SCF STABILITY ANALYSIS                              
------------------------------------------------------------------------------


---------------
TD-DFT XC SETUP
---------------

DFT calculation                         ... on
Name of the grid file                   ... /scratch/ch1tk/orca.15439/wB97XD3_def2-SVP_toluene_S0_TDA6S_2-60.grid.tmp
Exchange functional (SCF)               ... WB97X-D3
Exchange functional (TD-DFT)            ... WB97X-D3
Correlation functional (SCF)            ... WB97X-D3
Correlation functional (TD-DFT)         ... WB97X-D3
Hybrid DFT                              ... on
   Exchange mixing (SCF)                ...  0.196
   Exchange mixing (TD-DFT)             ...  0.196
   GGA exch. scaling(SCF)               ...  0.000
   GGA exch. scaling (TD-DFT)           ...  0.000
   GGA corr. scaling (SCF)              ...  1.000
   GGA corr. scaling (TD-DFT)           ...  1.000
Range-Separated Exchange                ... on
   Range Range separation parameter mu  .... 0.250
   Max. amount of RS exchange (SCF)     ...  0.804
   Max. amount of RS exchange (TD-DFT)  ...  0.804

Electron density on the grid   ... found on disk
Building xc-kernel on the grid ... done
                    *** TD-DFT CALCULATION INITIALIZED ***

                       ****Iteration    0****

   Memory handling for direct AO based CIS:
   Memory per vector needed      ...     1 MB
   Memory needed                 ...     7 MB
   Memory available              ...  1024 MB
   Number of vectors per batch   ...   783
   Number of batches             ...     1
   Time for densities:     0.007
   Time for XC-Integration:     1.539
   Time for K (COSX):    10.737
   Time for RI-J (Direct):     1.606
   Time for Sigma-Completion:     0.029
   Lowest Energy          :    -0.145344308616
   Maximum Energy change  :     0.145344308616 (vector 0)
   Maximum residual norm  :     0.019159901413

                       ****Iteration    1****
   Time for densities:     0.004
   Time for XC-Integration:     0.881
   Time for K (COSX):    10.475
   Time for RI-J (Direct):     0.859
   Time for Sigma-Completion:     0.015
   Lowest Energy          :    -0.174006885206
   Maximum Energy change  :     0.028662576589 (vector 0)
   Maximum residual norm  :     0.000974152682

                       ****Iteration    2****
   Time for densities:     0.004
   Time for XC-Integration:     0.903
   Time for K (COSX):    10.542
   Time for RI-J (Direct):     0.867
   Time for Sigma-Completion:     0.014
   Lowest Energy          :    -0.174482134670
   Maximum Energy change  :     0.001949790134 (vector 1)
   Maximum residual norm  :     0.000080929262

      *** CONVERGENCE OF RESIDUAL NORM REACHED ***

----------------------------- 
SCF STABILITY ANALYSIS RESULT 
----------------------------- 

UHF/UKS->UHF/UKS - singlet - internal

   Root    Eigenvalue (au) 
     0      -0.174482 
     1      -0.053454 
     2      -0.020501 

Stability Analysis indicates an UNSTABLE HF/KS wave function with SEVERAL negative eigenvalues.

Since this is UHF/UKS, we will restart the SCF using a new guess based on the eigenvector 
associated with the lowest eigenvalue. Because there is no guarantee that the restart     
will result in a stable solution, the user should check the stability of the resulting    
wave function in a separate calculation using the MOREAD guess feature.

Obtain new guess               ... done 

Total time for performing the stability analysis:    38.519sec

--------------------------
SCF ITERATIONS (restarted)
--------------------------
ITER       Energy         Delta-E        Max-DP      RMS-DP      [F,P]     Damp
               ***  Starting incremental Fock matrix formation  ***
  0   -306.9338187594   0.000000000000 0.00373284  0.00007083  0.0102437 0.8500
  1   -306.9351264822  -0.001307722826 0.00472624  0.00009662  0.0089161 0.8500
                               ***Turning on DIIS***
  2   -306.9367759477  -0.001649465532 0.03371841  0.00070110  0.0078196 0.0000
  3   -306.9546602917  -0.017884343931 0.02073324  0.00039437  0.0043776 0.0000
  4   -306.9634423566  -0.008782064968 0.01540367  0.00032205  0.0041309 0.0000
  5   -306.9694258284  -0.005983471730 0.02495324  0.00049986  0.0035671 0.0000
  6   -306.9754154691  -0.005989640741 0.00610233  0.00010374  0.0043288 0.0000
  7   -306.9760696396  -0.000654170535 0.00581535  0.00010462  0.0029367 0.0000
  8   -306.9765821178  -0.000512478193 0.00534556  0.00009126  0.0031705 0.0000
  9   -306.9768771575  -0.000295039623 0.00517161  0.00008880  0.0016751 0.0000
 10   -306.9770594270  -0.000182269561 0.00302932  0.00005081  0.0012356 0.0000
 11   -306.9771098742  -0.000050447167 0.00117840  0.00002300  0.0006778 0.0000
 12   -306.9771195926  -0.000009718389 0.00073130  0.00001267  0.0003477 0.0000
 13   -306.9771220932  -0.000002500634 0.00021041  0.00000488  0.0002710 0.0000
                 **** Energy Check signals convergence ****

               *****************************************************
               *                     SUCCESS                       *
               *           SCF CONVERGED AFTER  14 CYCLES          *
               *****************************************************

Setting up the final grid:

General Integration Accuracy     IntAcc      ...  4.670
Radial Grid Type                 RadialGrid  ... Gauss-Chebyshev
Angular Grid (max. acc.)         AngularGrid ... Lebedev-302
Angular grid pruning method      GridPruning ... 3 (G Style)
Weight generation scheme         WeightScheme... Becke
Basis function cutoff            BFCut       ...    1.0000e-10
Integration weight cutoff        WCut        ...    1.0000e-14
Grids for H and He will be reduced by one unit

# of grid points (after initial pruning)     ...  63848 (   0.0 sec)
# of grid points (after weights+screening)   ...  59184 (   0.1 sec)
nearest neighbour list constructed           ...    0.0 sec
Grid point re-assignment to atoms done       ...    0.0 sec
Grid point division into batches done        ...    0.2 sec
Reduced shell lists constructed in    1.1 sec

Total number of grid points                  ...    59184
Total number of batches                      ...      930
Average number of points per batch           ...       63
Average number of grid points per atom       ...     4553
Average number of shells per batch           ...    39.73 (66.22%)
Average number of basis functions per batch  ...    83.96 (65.59%)
Average number of large shells per batch     ...    31.07 (78.20%)
Average number of large basis fcns per batch ...    64.68 (77.04%)
Maximum spatial batch extension              ...  15.78, 16.67, 24.37 au
Average spatial batch extension              ...   2.60,  2.48,  3.09 au

Final grid set up in    1.2 sec
Final integration                            ... done (   1.5 sec)
Change in XC energy                          ...     0.000990491
Integrated number of electrons               ...    49.999888891
Previous integrated no of electrons          ...    49.998619575
Old exchange energy                            =    -13.429843495 Eh
New exchange energy                            =    -13.430108798 Eh
Exchange energy change after final integration =     -0.000265303 Eh
Total energy after final integration           =   -306.976397420 Eh
Final COS-X integration done in                =     8.608 sec

----------------
TOTAL SCF ENERGY
----------------

Total Energy       :         -306.97639742 Eh           -8353.25244 eV

Components:
Nuclear Repulsion  :          266.61214975 Eh            7254.88543 eV
Electronic Energy  :         -573.58854717 Eh          -15608.13787 eV
One Electron Energy:         -942.58277540 Eh          -25648.98129 eV
Two Electron Energy:          368.99422824 Eh           10040.84342 eV

Virial components:
Potential Energy   :         -610.82780609 Eh          -16621.46962 eV
Kinetic Energy     :          303.85140867 Eh            8268.21718 eV
Virial Ratio       :            2.01028460


DFT components:
N(Alpha)           :       24.999911706394 electrons
N(Beta)            :       24.999977184545 electrons
N(Total)           :       49.999888890939 electrons
E(XC)              :      -29.670019681821 Eh       

---------------
SCF CONVERGENCE
---------------

  Last Energy change         ...   -5.1431e-07  Tolerance :   1.0000e-06
  Last MAX-Density change    ...    0.0000e+00  Tolerance :   1.0000e-05
  Last RMS-Density change    ...    0.0000e+00  Tolerance :   1.0000e-06
  Last DIIS Error            ...    1.6195e-04  Tolerance :   1.0000e-06

             **** THE GBW FILE WAS UPDATED (/scratch/ch1tk/orca.15439/wB97XD3_def2-SVP_toluene_S0_TDA6S_2-60.gbw) ****
             **** DENSITY FILE WAS UPDATED (/scratch/ch1tk/orca.15439/wB97XD3_def2-SVP_toluene_S0_TDA6S_2-60.scfp.tmp) ****
             **** ENERGY FILE WAS UPDATED (/scratch/ch1tk/orca.15439/wB97XD3_def2-SVP_toluene_S0_TDA6S_2-60.en.tmp) ****

     --------------------------------------------------------------------
                                      WARNING
     A stability analysis of the first UHF/UKS SCF solution was performed
     and an instability detected. The result was used as a guess for
     a second SCF, which has converged. There is no guarantee that the
     current solution is stable - it is up to you to rerun the stability
     analysis using the now stored solution as a guess and verify.
     --------------------------------------------------------------------

----------------------
UHF SPIN CONTAMINATION
----------------------

Warning: in a DFT calculation there is little theoretical justification to 
         calculate <S**2> as in Hartree-Fock theory. We will do it anyways
         but you should keep in mind that the values have only limited relevance

Expectation value of <S**2>     :     0.966906
Ideal value S*(S+1) for S=0.0   :     0.000000
Deviation                       :     0.966906

----------------
ORBITAL ENERGIES
----------------
                 SPIN UP ORBITALS
  NO   OCC          E(Eh)            E(eV) 
   0   1.0000     -19.306064      -525.3447 
   1   1.0000     -10.365352      -282.0556 
   2   1.0000     -10.306735      -280.4605 
   3   1.0000     -10.306373      -280.4507 
   4   1.0000     -10.304394      -280.3968 
   5   1.0000     -10.304030      -280.3869 
   6   1.0000     -10.294830      -280.1366 
   7   1.0000      -1.116735       -30.3879 
   8   1.0000      -0.968683       -26.3592 
   9   1.0000      -0.867611       -23.6089 
  10   1.0000      -0.841975       -22.9113 
  11   1.0000      -0.725317       -19.7369 
  12   1.0000      -0.699269       -19.0281 
  13   1.0000      -0.625764       -17.0279 
  14   1.0000      -0.572775       -15.5860 
  15   1.0000      -0.569501       -15.4969 
  16   1.0000      -0.535307       -14.5664 
  17   1.0000      -0.530604       -14.4385 
  18   1.0000      -0.523717       -14.2511 
  19   1.0000      -0.464802       -12.6479 
  20   1.0000      -0.453178       -12.3316 
  21   1.0000      -0.444037       -12.0829 
  22   1.0000      -0.414741       -11.2857 
  23   1.0000      -0.353704        -9.6248 
  24   1.0000      -0.314616        -8.5611 
  25   0.0000      -0.077911        -2.1201 
  26   0.0000       0.058576         1.5939 
  27   0.0000       0.076420         2.0795 
  28   0.0000       0.145624         3.9626 
  29   0.0000       0.184709         5.0262 
  30   0.0000       0.202097         5.4993 
  31   0.0000       0.232095         6.3156 
  32   0.0000       0.239568         6.5190 
  33   0.0000       0.245776         6.6879 
  34   0.0000       0.293259         7.9800 
  35   0.0000       0.349074         9.4988 
  36   0.0000       0.370636        10.0855 
  37   0.0000       0.382631        10.4119 
  38   0.0000       0.411755        11.2044 
  39   0.0000       0.441972        12.0267 
  40   0.0000       0.496134        13.5005 
  41   0.0000       0.496453        13.5092 
  42   0.0000       0.521048        14.1784 
  43   0.0000       0.531465        14.4619 
  44   0.0000       0.556475        15.1425 
  45   0.0000       0.560393        15.2491 
  46   0.0000       0.582808        15.8590 
  47   0.0000       0.601059        16.3557 
  48   0.0000       0.626985        17.0611 
  49   0.0000       0.631247        17.1771 
  50   0.0000       0.632830        17.2202 
  51   0.0000       0.673865        18.3368 
  52   0.0000       0.694774        18.9058 
  53   0.0000       0.702972        19.1288 
  54   0.0000       0.729641        19.8545 
  55   0.0000       0.743410        20.2292 
  56   0.0000       0.764837        20.8123 
  57   0.0000       0.779691        21.2165 
  58   0.0000       0.804387        21.8885 
  59   0.0000       0.813414        22.1341 
  60   0.0000       0.830496        22.5989 
  61   0.0000       0.836449        22.7609 
  62   0.0000       0.865846        23.5609 
  63   0.0000       0.893039        24.3008 
  64   0.0000       0.907672        24.6990 
  65   0.0000       0.960287        26.1307 
  66   0.0000       1.012542        27.5527 
  67   0.0000       1.091000        29.6876 
  68   0.0000       1.107269        30.1303 
  69   0.0000       1.162067        31.6214 
  70   0.0000       1.234927        33.6041 
  71   0.0000       1.272060        34.6145 
  72   0.0000       1.309614        35.6364 
  73   0.0000       1.325573        36.0707 
  74   0.0000       1.329629        36.1810 
  75   0.0000       1.366190        37.1759 
  76   0.0000       1.368214        37.2310 
  77   0.0000       1.389654        37.8144 
  78   0.0000       1.450498        39.4701 
  79   0.0000       1.488660        40.5085 
  80   0.0000       1.524680        41.4886 
  81   0.0000       1.533852        41.7382 
  82   0.0000       1.578455        42.9520 
  83   0.0000       1.596078        43.4315 
  84   0.0000       1.746195        47.5164 
  85   0.0000       1.754300        47.7369 
  86   0.0000       1.782298        48.4988 
  87   0.0000       1.825358        49.6705 
  88   0.0000       1.836152        49.9642 
  89   0.0000       1.837608        50.0038 
  90   0.0000       1.857355        50.5412 
  91   0.0000       1.878103        51.1058 
  92   0.0000       1.886056        51.3222 
  93   0.0000       1.891098        51.4594 
  94   0.0000       1.928631        52.4807 
  95   0.0000       1.987834        54.0917 
  96   0.0000       2.037771        55.4506 
  97   0.0000       2.067728        56.2657 
  98   0.0000       2.074642        56.4539 
  99   0.0000       2.130711        57.9796 
 100   0.0000       2.189661        59.5837 
 101   0.0000       2.224478        60.5311 
 102   0.0000       2.234927        60.8155 
 103   0.0000       2.281534        62.0837 
 104   0.0000       2.304937        62.7205 
 105   0.0000       2.353870        64.0521 
 106   0.0000       2.357464        64.1499 
 107   0.0000       2.397404        65.2367 
 108   0.0000       2.433335        66.2144 
 109   0.0000       2.437954        66.3401 
 110   0.0000       2.595804        70.6354 
 111   0.0000       2.634519        71.6889 
 112   0.0000       2.674013        72.7636 
 113   0.0000       2.681810        72.9757 
 114   0.0000       2.732857        74.3648 
 115   0.0000       2.789358        75.9023 
 116   0.0000       2.799420        76.1761 
 117   0.0000       2.818770        76.7026 
 118   0.0000       2.822128        76.7940 
 119   0.0000       2.943889        80.1073 
 120   0.0000       2.972136        80.8759 
 121   0.0000       3.062147        83.3252 
 122   0.0000       3.096526        84.2608 
 123   0.0000       3.115399        84.7743 
 124   0.0000       3.246401        88.3391 
 125   0.0000       3.447901        93.8221 
 126   0.0000       3.487373        94.8962 
 127   0.0000       3.783483       102.9538 

                 SPIN DOWN ORBITALS
  NO   OCC          E(Eh)            E(eV) 
   0   1.0000     -19.324747      -525.8531 
   1   1.0000     -10.365070      -282.0479 
   2   1.0000     -10.306882      -280.4645 
   3   1.0000     -10.306439      -280.4525 
   4   1.0000     -10.305127      -280.4167 
   5   1.0000     -10.305071      -280.4152 
   6   1.0000     -10.294746      -280.1343 
   7   1.0000      -1.172350       -31.9013 
   8   1.0000      -0.974003       -26.5040 
   9   1.0000      -0.869688       -23.6654 
  10   1.0000      -0.850237       -23.1361 
  11   1.0000      -0.733172       -19.9506 
  12   1.0000      -0.705295       -19.1921 
  13   1.0000      -0.632068       -17.1995 
  14   1.0000      -0.596245       -16.2247 
  15   1.0000      -0.579904       -15.7800 
  16   1.0000      -0.542638       -14.7659 
  17   1.0000      -0.535226       -14.5642 
  18   1.0000      -0.531767       -14.4701 
  19   1.0000      -0.498205       -13.5569 
  20   1.0000      -0.466938       -12.7060 
  21   1.0000      -0.453915       -12.3516 
  22   1.0000      -0.440505       -11.9868 
  23   1.0000      -0.354058        -9.6344 
  24   1.0000      -0.322574        -8.7777 
  25   0.0000       0.057771         1.5720 
  26   0.0000       0.075161         2.0452 
  27   0.0000       0.079022         2.1503 
  28   0.0000       0.147099         4.0028 
  29   0.0000       0.186852         5.0845 
  30   0.0000       0.204645         5.5687 
  31   0.0000       0.231957         6.3119 
  32   0.0000       0.245312         6.6753 
  33   0.0000       0.250726         6.8226 
  34   0.0000       0.292609         7.9623 
  35   0.0000       0.352765         9.5992 
  36   0.0000       0.370338        10.0774 
  37   0.0000       0.381872        10.3913 
  38   0.0000       0.407226        11.0812 
  39   0.0000       0.440495        11.9865 
  40   0.0000       0.495045        13.4708 
  41   0.0000       0.496054        13.4983 
  42   0.0000       0.520104        14.1528 
  43   0.0000       0.531530        14.4637 
  44   0.0000       0.556062        15.1312 
  45   0.0000       0.578615        15.7449 
  46   0.0000       0.592040        16.1102 
  47   0.0000       0.623849        16.9758 
  48   0.0000       0.626374        17.0445 
  49   0.0000       0.632280        17.2052 
  50   0.0000       0.665713        18.1150 
  51   0.0000       0.694123        18.8880 
  52   0.0000       0.702804        19.1243 
  53   0.0000       0.728204        19.8154 
  54   0.0000       0.743879        20.2420 
  55   0.0000       0.765465        20.8294 
  56   0.0000       0.779236        21.2041 
  57   0.0000       0.801626        21.8134 
  58   0.0000       0.811893        22.0927 
  59   0.0000       0.827430        22.5155 
  60   0.0000       0.836945        22.7744 
  61   0.0000       0.848783        23.0966 
  62   0.0000       0.868070        23.6214 
  63   0.0000       0.900332        24.4993 
  64   0.0000       0.912880        24.8407 
  65   0.0000       0.965572        26.2745 
  66   0.0000       1.010724        27.5032 
  67   0.0000       1.077338        29.3159 
  68   0.0000       1.104549        30.0563 
  69   0.0000       1.153755        31.3953 
  70   0.0000       1.214289        33.0425 
  71   0.0000       1.271316        34.5943 
  72   0.0000       1.306828        35.5606 
  73   0.0000       1.324083        36.0301 
  74   0.0000       1.329429        36.1756 
  75   0.0000       1.365781        37.1648 
  76   0.0000       1.366141        37.1746 
  77   0.0000       1.389323        37.8054 
  78   0.0000       1.531851        41.6838 
  79   0.0000       1.565562        42.6011 
  80   0.0000       1.587123        43.1878 
  81   0.0000       1.683118        45.8000 
  82   0.0000       1.685287        45.8590 
  83   0.0000       1.744587        47.4726 
  84   0.0000       1.751535        47.6617 
  85   0.0000       1.782130        48.4942 
  86   0.0000       1.824304        49.6418 
  87   0.0000       1.835943        49.9585 
  88   0.0000       1.836206        49.9657 
  89   0.0000       1.845424        50.2165 
  90   0.0000       1.872436        50.9516 
  91   0.0000       1.882024        51.2125 
  92   0.0000       1.890394        51.4402 
  93   0.0000       1.899738        51.6945 
  94   0.0000       1.968052        53.5534 
  95   0.0000       1.987913        54.0939 
  96   0.0000       2.037714        55.4490 
  97   0.0000       2.067334        56.2550 
  98   0.0000       2.074366        56.4464 
  99   0.0000       2.127488        57.8919 
 100   0.0000       2.189284        59.5735 
 101   0.0000       2.223907        60.5156 
 102   0.0000       2.239366        60.9362 
 103   0.0000       2.279506        62.0285 
 104   0.0000       2.302827        62.6631 
 105   0.0000       2.348866        63.9159 
 106   0.0000       2.350762        63.9675 
 107   0.0000       2.396515        65.2125 
 108   0.0000       2.432482        66.1912 
 109   0.0000       2.436317        66.2956 
 110   0.0000       2.594873        70.6101 
 111   0.0000       2.615657        71.1756 
 112   0.0000       2.628828        71.5340 
 113   0.0000       2.655184        72.2512 
 114   0.0000       2.724148        74.1278 
 115   0.0000       2.729893        74.2842 
 116   0.0000       2.768150        75.3252 
 117   0.0000       2.818589        76.6977 
 118   0.0000       2.821029        76.7641 
 119   0.0000       2.941279        80.0363 
 120   0.0000       2.971018        80.8455 
 121   0.0000       3.047977        82.9397 
 122   0.0000       3.087955        84.0275 
 123   0.0000       3.106846        84.5416 
 124   0.0000       3.240969        88.1912 
 125   0.0000       3.423850        93.1677 
 126   0.0000       3.463709        94.2523 
 127   0.0000       3.775813       102.7451 

                    ********************************
                    * MULLIKEN POPULATION ANALYSIS *
                    ********************************

--------------------------------------------
MULLIKEN ATOMIC CHARGES AND SPIN POPULATIONS
--------------------------------------------
   0 C :   -0.007844   -0.006189
   1 C :   -0.069378   -0.042989
   2 C :    0.190414    0.046551
   3 C :   -0.076995   -0.030826
   4 C :   -0.010048   -0.003743
   5 C :   -0.031919    0.009404
   6 H :    0.030802   -0.003127
   7 H :    0.027435    0.000432
   8 H :    0.018714    0.000367
   9 H :    0.029437   -0.002446
  10 H :    0.023622   -0.000255
  11 O :   -0.140396   -0.939377
  12 H :    0.016155    0.972197
Sum of atomic charges         :   -0.0000000
Sum of atomic spin populations:   -0.0000000

-----------------------------------------------------
MULLIKEN REDUCED ORBITAL CHARGES AND SPIN POPULATIONS
-----------------------------------------------------
CHARGE
  0 C s       :     3.149310  s :     3.149310
      pz      :     0.964525  p :     2.822402
      px      :     0.921639
      py      :     0.936238
      dz2     :     0.002566  d :     0.036132
      dxz     :     0.003848
      dyz     :     0.006751
      dx2y2   :     0.011170
      dxy     :     0.011797
  1 C s       :     3.200131  s :     3.200131
      pz      :     1.065204  p :     2.836224
      px      :     0.877487
      py      :     0.893533
      dz2     :     0.002721  d :     0.033022
      dxz     :     0.003472
      dyz     :     0.005457
      dx2y2   :     0.008654
      dxy     :     0.012718
  2 C s       :     2.958079  s :     2.958079
      pz      :     0.962918  p :     2.777427
      px      :     1.029667
      py      :     0.784842
      dz2     :     0.005576  d :     0.074080
      dxz     :     0.007745
      dyz     :     0.019738
      dx2y2   :     0.025141
      dxy     :     0.015880
  3 C s       :     3.201457  s :     3.201457
      pz      :     1.069504  p :     2.842512
      px      :     0.870987
      py      :     0.902020
      dz2     :     0.002712  d :     0.033026
      dxz     :     0.003633
      dyz     :     0.005284
      dx2y2   :     0.008941
      dxy     :     0.012455
  4 C s       :     3.151171  s :     3.151171
      pz      :     0.964323  p :     2.822693
      px      :     0.916425
      py      :     0.941946
      dz2     :     0.002575  d :     0.036184
      dxz     :     0.003697
      dyz     :     0.006909
      dx2y2   :     0.011433
      dxy     :     0.011570
  5 C s       :     3.144560  s :     3.144560
      pz      :     1.027196  p :     2.853010
      px      :     0.954570
      py      :     0.871244
      dz2     :     0.002558  d :     0.034348
      dxz     :     0.006227
      dyz     :     0.002558
      dx2y2   :     0.012394
      dxy     :     0.010612
  6 H s       :     0.946581  s :     0.946581
      pz      :     0.004405  p :     0.022617
      px      :     0.011737
      py      :     0.006474
  7 H s       :     0.949594  s :     0.949594
      pz      :     0.004883  p :     0.022971
      px      :     0.012036
      py      :     0.006052
  8 H s       :     0.958115  s :     0.958115
      pz      :     0.004898  p :     0.023170
      px      :     0.011780
      py      :     0.006492
  9 H s       :     0.948009  s :     0.948009
      pz      :     0.004408  p :     0.022554
      px      :     0.012242
      py      :     0.005904
 10 H s       :     0.953363  s :     0.953363
      pz      :     0.004816  p :     0.023015
      px      :     0.003044
      py      :     0.015155
 11 O s       :     3.856781  s :     3.856781
      pz      :     1.844593  p :     4.271611
      px      :     1.046515
      py      :     1.380503
      dz2     :     0.001650  d :     0.012005
      dxz     :     0.000029
      dyz     :     0.002969
      dx2y2   :     0.004930
      dxy     :     0.002426
 12 H s       :     0.983522  s :     0.983522
      pz      :     0.000009  p :     0.000324
      px      :     0.000175
      py      :     0.000139

SPIN
  0 C s       :    -0.000654  s :    -0.000654
      pz      :    -0.000465  p :    -0.005434
      px      :     0.000236
      py      :    -0.005204
      dz2     :    -0.000007  d :    -0.000102
      dxz     :     0.000031
      dyz     :     0.000081
      dx2y2   :    -0.000026
      dxy     :    -0.000181
  1 C s       :    -0.013820  s :    -0.013820
      pz      :     0.002586  p :    -0.029003
      px      :    -0.017527
      py      :    -0.014062
      dz2     :    -0.000040  d :    -0.000165
      dxz     :    -0.000105
      dyz     :    -0.000003
      dx2y2   :     0.000105
      dxy     :    -0.000121
  2 C s       :     0.012426  s :     0.012426
      pz      :     0.001172  p :     0.043632
      px      :     0.017990
      py      :     0.024470
      dz2     :    -0.000057  d :    -0.009507
      dxz     :    -0.000061
      dyz     :     0.000512
      dx2y2   :    -0.000013
      dxy     :    -0.009889
  3 C s       :    -0.008720  s :    -0.008720
      pz      :     0.004346  p :    -0.022054
      px      :    -0.016944
      py      :    -0.009457
      dz2     :    -0.000042  d :    -0.000052
      dxz     :    -0.000105
      dyz     :    -0.000005
      dx2y2   :     0.000168
      dxy     :    -0.000067
  4 C s       :    -0.000280  s :    -0.000280
      pz      :    -0.000475  p :    -0.003411
      px      :    -0.000121
      py      :    -0.002815
      dz2     :    -0.000003  d :    -0.000052
      dxz     :     0.000028
      dyz     :     0.000100
      dx2y2   :    -0.000020
      dxy     :    -0.000156
  5 C s       :     0.001015  s :     0.001015
      pz      :     0.007658  p :     0.008433
      px      :     0.000560
      py      :     0.000216
      dz2     :    -0.000021  d :    -0.000044
      dxz     :     0.000016
      dyz     :    -0.000013
      dx2y2   :     0.000026
      dxy     :    -0.000053
  6 H s       :    -0.003142  s :    -0.003142
      pz      :    -0.000006  p :     0.000014
      px      :    -0.000011
      py      :     0.000032
  7 H s       :     0.000434  s :     0.000434
      pz      :     0.000033  p :    -0.000002
      px      :    -0.000065
      py      :     0.000031
  8 H s       :     0.000010  s :     0.000010
      pz      :     0.000045  p :     0.000357
      px      :     0.000063
      py      :     0.000250
  9 H s       :    -0.002459  s :    -0.002459
      pz      :    -0.000006  p :     0.000013
      px      :    -0.000005
      py      :     0.000024
 10 H s       :    -0.000313  s :    -0.000313
      pz      :     0.000054  p :     0.000058
      px      :     0.000002
      py      :     0.000003
 11 O s       :    -0.018822  s :    -0.018822
      pz      :    -0.015422  p :    -0.920437
      px      :    -0.883327
      py      :    -0.021688
      dz2     :    -0.000128  d :    -0.000118
      dxz     :    -0.000002
      dyz     :     0.000004
      dx2y2   :     0.000108
      dxy     :    -0.000100
 12 H s       :     0.972310  s :     0.972310
      pz      :     0.000002  p :    -0.000114
      px      :    -0.000074
      py      :    -0.000041


                     *******************************
                     * LOEWDIN POPULATION ANALYSIS *
                     *******************************

-------------------------------------------
LOEWDIN ATOMIC CHARGES AND SPIN POPULATIONS
-------------------------------------------
   0 C :   -0.012071   -0.004678
   1 C :   -0.063476   -0.034684
   2 C :    0.022749   -0.001759
   3 C :   -0.069638   -0.023020
   4 C :   -0.012543   -0.001784
   5 C :   -0.058691    0.007381
   6 H :    0.038111   -0.002311
   7 H :    0.038842    0.000533
   8 H :    0.034150    0.004785
   9 H :    0.038023   -0.001912
  10 H :    0.032914    0.000145
  11 O :   -0.005809   -0.906508
  12 H :    0.017439    0.963813

----------------------------------------------------
LOEWDIN REDUCED ORBITAL CHARGES AND SPIN POPULATIONS
----------------------------------------------------
CHARGE
  0 C s       :     2.858172  s :     2.858172
      pz      :     0.949187  p :     3.061447
      px      :     1.054305
      py      :     1.057954
      dz2     :     0.005974  d :     0.092452
      dxz     :     0.007205
      dyz     :     0.013863
      dx2y2   :     0.031824
      dxy     :     0.033586
  1 C s       :     2.856713  s :     2.856713
      pz      :     1.039502  p :     3.119573
      px      :     1.027249
      py      :     1.052822
      dz2     :     0.006435  d :     0.087189
      dxz     :     0.006084
      dyz     :     0.011122
      dx2y2   :     0.027142
      dxy     :     0.036406
  2 C s       :     2.849556  s :     2.849556
      pz      :     0.949746  p :     2.958394
      px      :     1.099412
      py      :     0.909235
      dz2     :     0.012115  d :     0.169301
      dxz     :     0.015381
      dyz     :     0.037045
      dx2y2   :     0.061672
      dxy     :     0.043088
  3 C s       :     2.858074  s :     2.858074
      pz      :     1.043658  p :     3.124505
      px      :     1.024270
      py      :     1.056577
      dz2     :     0.006435  d :     0.087059
      dxz     :     0.006426
      dyz     :     0.010710
      dx2y2   :     0.027758
      dxy     :     0.035730
  4 C s       :     2.858127  s :     2.858127
      pz      :     0.948793  p :     3.061880
      px      :     1.053800
      py      :     1.059287
      dz2     :     0.005992  d :     0.092536
      dxz     :     0.006829
      dyz     :     0.014291
      dx2y2   :     0.032570
      dxy     :     0.032853
  5 C s       :     2.855857  s :     2.855857
      pz      :     1.007836  p :     3.113322
      px      :     1.063818
      py      :     1.041668
      dz2     :     0.006086  d :     0.089512
      dxz     :     0.013061
      dyz     :     0.004158
      dx2y2   :     0.035271
      dxy     :     0.030936
  6 H s       :     0.895475  s :     0.895475
      pz      :     0.013384  p :     0.066414
      px      :     0.033874
      py      :     0.019156
  7 H s       :     0.892021  s :     0.892021
      pz      :     0.015769  p :     0.069137
      px      :     0.034994
      py      :     0.018374
  8 H s       :     0.896660  s :     0.896660
      pz      :     0.015740  p :     0.069189
      px      :     0.034178
      py      :     0.019272
  9 H s       :     0.895570  s :     0.895570
      pz      :     0.013393  p :     0.066407
      px      :     0.035195
      py      :     0.017819
 10 H s       :     0.899441  s :     0.899441
      pz      :     0.015018  p :     0.067645
      px      :     0.010802
      py      :     0.041825
 11 O s       :     3.653641  s :     3.653641
      pz      :     1.837665  p :     4.332517
      px      :     1.043364
      py      :     1.451489
      dz2     :     0.002839  d :     0.019651
      dxz     :     0.000035
      dyz     :     0.004089
      dx2y2   :     0.008702
      dxy     :     0.003986
 12 H s       :     0.982162  s :     0.982162
      pz      :     0.000010  p :     0.000400
      px      :     0.000224
      py      :     0.000166

SPIN
  0 C s       :    -0.001084  s :    -0.001084
      pz      :    -0.000238  p :    -0.003361
      px      :    -0.000008
      py      :    -0.003115
      dz2     :    -0.000024  d :    -0.000233
      dxz     :     0.000081
      dyz     :     0.000184
      dx2y2   :     0.000021
      dxy     :    -0.000495
  1 C s       :    -0.008914  s :    -0.008914
      pz      :     0.002254  p :    -0.025652
      px      :    -0.013765
      py      :    -0.014140
      dz2     :    -0.000090  d :    -0.000118
      dxz     :    -0.000119
      dyz     :    -0.000031
      dx2y2   :     0.000059
      dxy     :     0.000063
  2 C s       :     0.005769  s :     0.005769
      pz      :     0.000483  p :     0.015626
      px      :    -0.003664
      py      :     0.018807
      dz2     :    -0.000386  d :    -0.023154
      dxz     :    -0.000096
      dyz     :     0.000730
      dx2y2   :    -0.000976
      dxy     :    -0.022426
  3 C s       :    -0.005773  s :    -0.005773
      pz      :     0.003821  p :    -0.017464
      px      :    -0.013592
      py      :    -0.007693
      dz2     :    -0.000073  d :     0.000216
      dxz     :    -0.000122
      dyz     :    -0.000026
      dx2y2   :     0.000344
      dxy     :     0.000094
  4 C s       :    -0.000442  s :    -0.000442
      pz      :    -0.000219  p :    -0.001189
      px      :    -0.000105
      py      :    -0.000865
      dz2     :    -0.000013  d :    -0.000153
      dxz     :     0.000072
      dyz     :     0.000224
      dx2y2   :    -0.000004
      dxy     :    -0.000432
  5 C s       :     0.000333  s :     0.000333
      pz      :     0.006951  p :     0.007181
      px      :     0.000038
      py      :     0.000192
      dz2     :    -0.000022  d :    -0.000132
      dxz     :     0.000035
      dyz     :    -0.000019
      dx2y2   :     0.000050
      dxy     :    -0.000176
  6 H s       :    -0.002249  s :    -0.002249
      pz      :    -0.000015  p :    -0.000062
      px      :     0.000011
      py      :    -0.000058
  7 H s       :     0.000887  s :     0.000887
      pz      :     0.000126  p :    -0.000354
      px      :    -0.000586
      py      :     0.000106
  8 H s       :     0.003957  s :     0.003957
      pz      :     0.000167  p :     0.000828
      px      :     0.000004
      py      :     0.000657
  9 H s       :    -0.001916  s :    -0.001916
      pz      :    -0.000013  p :     0.000003
      px      :     0.000021
      py      :    -0.000004
 10 H s       :    -0.000102  s :    -0.000102
      pz      :     0.000197  p :     0.000247
      px      :     0.000020
      py      :     0.000030
 11 O s       :    -0.011177  s :    -0.011177
      pz      :    -0.014427  p :    -0.895506
      px      :    -0.864175
      py      :    -0.016904
      dz2     :     0.000061  d :     0.000175
      dxz     :    -0.000001
      dyz     :     0.000001
      dx2y2   :     0.000018
      dxy     :     0.000095
 12 H s       :     0.963986  s :     0.963986
      pz      :     0.000002  p :    -0.000173
      px      :    -0.000116
      py      :    -0.000059


                      *****************************
                      * MAYER POPULATION ANALYSIS *
                      *****************************

  NA   - Mulliken gross atomic population
  ZA   - Total nuclear charge
  QA   - Mulliken gross atomic charge
  VA   - Mayer's total valence
  BVA  - Mayer's bonded valence
  FA   - Mayer's free valence

  ATOM       NA         ZA         QA         VA         BVA        FA
  0 C      6.0078     6.0000    -0.0078     3.8831     3.8831     0.0000
  1 C      6.0694     6.0000    -0.0694     3.8881     3.8860     0.0022
  2 C      5.8096     6.0000     0.1904     3.9371     3.9340     0.0031
  3 C      6.0770     6.0000    -0.0770     3.8822     3.8805     0.0017
  4 C      6.0100     6.0000    -0.0100     3.8883     3.8883     0.0000
  5 C      6.0319     6.0000    -0.0319     3.8561     3.8560     0.0001
  6 H      0.9692     1.0000     0.0308     0.9851     0.9851     0.0000
  7 H      0.9726     1.0000     0.0274     0.9950     0.9950     0.0000
  8 H      0.9813     1.0000     0.0187     1.0010     1.0010     0.0000
  9 H      0.9706     1.0000     0.0294     0.9850     0.9850     0.0000
 10 H      0.9764     1.0000     0.0236     0.9853     0.9853     0.0000
 11 O      8.1404     8.0000    -0.1404     2.1663     1.3661     0.8002
 12 H      0.9838     1.0000     0.0162     1.0027     0.0549     0.9478

  Mayer bond orders larger than 0.1
B(  0-C ,  1-C ) :   1.4055 B(  0-C ,  5-C ) :   1.3912 B(  0-C ,  6-H ) :   0.9854 
B(  1-C ,  2-C ) :   1.3342 B(  1-C ,  7-H ) :   0.9922 B(  2-C ,  3-C ) :   1.3353 
B(  2-C , 11-O ) :   1.1672 B(  3-C ,  4-C ) :   1.3960 B(  3-C ,  8-H ) :   0.9931 
B(  4-C ,  5-C ) :   1.4021 B(  4-C ,  9-H ) :   0.9857 B(  5-C , 10-H ) :   0.9917 


-------
TIMINGS
-------

Total SCF time: 0 days 0 hours 3 min 22 sec 

Total time                  ....     202.206 sec
Sum of individual times     ....     201.991 sec  ( 99.9%)

Fock matrix formation       ....     160.417 sec  ( 79.3%)
  Split-RI-J                ....      12.388 sec  (  7.7% of F)
  Chain of spheres X        ....     133.901 sec  ( 83.5% of F)
  COS-X 1 center corr.      ....       0.000 sec  (  0.0% of F)
  XC integration            ....      14.061 sec  (  8.8% of F)
    Basis function eval.    ....       5.271 sec  ( 37.5% of XC)
    Density eval.           ....       2.142 sec  ( 15.2% of XC)
    XC-Functional eval.     ....       2.192 sec  ( 15.6% of XC)
    XC-Potential eval.      ....       4.287 sec  ( 30.5% of XC)
Diagonalization             ....       0.219 sec  (  0.1%)
Density matrix formation    ....       0.013 sec  (  0.0%)
Population analysis         ....       0.009 sec  (  0.0%)
Initial guess               ....       0.488 sec  (  0.2%)
Orbital Transformation      ....       0.000 sec  (  0.0%)
Orbital Orthonormalization  ....       0.000 sec  (  0.0%)
DIIS solution               ....       0.055 sec  (  0.0%)
Grid generation             ....       2.271 sec  (  1.1%)
SCF Stability Analysis      ....      38.519 sec  ( 19.0%)
------------------------------------------------------------------------------
                        ORCA TD-DFT/TDA CALCULATION
------------------------------------------------------------------------------

Input orbitals are from        ... /scratch/ch1tk/orca.15439/wB97XD3_def2-SVP_toluene_S0_TDA6S_2-60.gbw
CI-vector output               ... /scratch/ch1tk/orca.15439/wB97XD3_def2-SVP_toluene_S0_TDA6S_2-60.cis
Tamm-Dancoff approximation     ... operative
CIS-Integral strategy          ... AO-integrals
Integral handling              ... AO integral Direct
Max. core memory used          ... 512 MB
Reference state                ... UHF
Number of operators            ... 2
Orbital ranges used for CIS calculation:
 Operator 0:  Orbitals   7... 24  to  25...127
 Operator 1:  Orbitals   7... 24  to  25...127
XAS localization array:
 Operator 0:  Orbitals  -1... -1
 Operator 1:  Orbitals  -1... -1
-------------------
XC-INTEGRATION GRID
-------------------

General Integration Accuracy     IntAcc      ...  3.670
Radial Grid Type                 RadialGrid  ... Gauss-Chebyshev
Angular Grid (max. acc.)         AngularGrid ... Lebedev-50
Angular grid pruning method      GridPruning ... 3 (G Style)
Weight generation scheme         WeightScheme... Becke
Basis function cutoff            BFCut       ...    1.0000e-10
Integration weight cutoff        WCut        ...    1.0000e-14
Grids for H and He will be reduced by one unit

# of grid points (after initial pruning)     ...   7582 (   0.0 sec)
# of grid points (after weights+screening)   ...   7159 (   0.0 sec)
nearest neighbour list constructed           ...    0.0 sec
Grid point re-assignment to atoms done       ...    0.0 sec
Grid point division into batches done        ...    0.0 sec
Reduced shell lists constructed in    0.1 sec

Total number of grid points                  ...     7159
Total number of batches                      ...      117
Average number of points per batch           ...       61
Average number of grid points per atom       ...      551
Average number of shells per batch           ...    46.06 (76.77%)
Average number of basis functions per batch  ...    98.47 (76.93%)
Average number of large shells per batch     ...    37.32 (81.03%)
Average number of large basis fcns per batch ...    78.64 (79.87%)
Maximum spatial batch extension              ...  17.81, 15.26, 30.56 au
Average spatial batch extension              ...   4.63,  4.29,  7.21 au

---------------------
COSX-INTEGRATION GRID
---------------------

General Integration Accuracy     IntAcc      ...  2.670
Radial Grid Type                 RadialGrid  ... Gauss-Chebyshev
Angular Grid (max. acc.)         AngularGrid ... Lebedev-50
Angular grid pruning method      GridPruning ... 3 (G Style)
Weight generation scheme         WeightScheme... Becke
Basis function cutoff            BFCut       ...    1.0000e-10
Integration weight cutoff        WCut        ...    1.0000e-14
Grids for H and He will be reduced by one unit

# of grid points (after initial pruning)     ...   4338 (   0.0 sec)
# of grid points (after weights+screening)   ...   4114 (   0.0 sec)
nearest neighbour list constructed           ...    0.0 sec
Grid point re-assignment to atoms done       ...    0.0 sec
Grid point division into batches done        ...    0.0 sec
Reduced shell lists constructed in    0.1 sec

Total number of grid points                  ...     4114
Total number of batches                      ...       72
Average number of points per batch           ...       57
Average number of grid points per atom       ...      316
Average number of shells per batch           ...    46.70 (77.83%)
Average number of basis functions per batch  ...   100.37 (78.41%)
Average number of large shells per batch     ...    38.00 (81.37%)
Average number of large basis fcns per batch ...    80.38 (80.09%)
Maximum spatial batch extension              ...  14.71, 12.58, 29.42 au
Average spatial batch extension              ...   4.87,  4.52,  7.29 au


---------------
TD-DFT XC SETUP
---------------

DFT calculation                         ... on
Name of the grid file                   ... /scratch/ch1tk/orca.15439/wB97XD3_def2-SVP_toluene_S0_TDA6S_2-60.grid_cis.tmp
Exchange functional (SCF)               ... WB97X-D3
Exchange functional (TD-DFT)            ... WB97X-D3
Correlation functional (SCF)            ... WB97X-D3
Correlation functional (TD-DFT)         ... WB97X-D3
Hybrid DFT                              ... on
   Exchange mixing (SCF)                ...  0.196
   Exchange mixing (TD-DFT)             ...  0.196
   GGA exch. scaling(SCF)               ...  0.000
   GGA exch. scaling (TD-DFT)           ...  0.000
   GGA corr. scaling (SCF)              ...  1.000
   GGA corr. scaling (TD-DFT)           ...  1.000
Range-Separated Exchange                ... on
   Range Range separation parameter mu  .... 0.250
   Max. amount of RS exchange (SCF)     ...  0.804
   Max. amount of RS exchange (TD-DFT)  ...  0.804

Building densities             ... done
Calculating rho(r) on the grid ... done
Building xc-kernel on the grid ... done
                    *** TD-DFT CALCULATION INITIALIZED ***


------------------------
DAVIDSON-DIAGONALIZATION
------------------------

Dimension of the eigenvalue problem            ...   3708
Number of roots to be determined               ...      6
Maximum size of the expansion space            ...     60
Convergence tolerance for the residual         ...    1.000e-06
Convergence tolerance for the energies         ...    1.000e-06
Orthogonality tolerance                        ...    1.000e-14
Level Shift                                    ...    0.000e+00
Constructing the preconditioner                ... o.k.
Building the initial guess                     ... o.k.
Number of trial vectors determined             ...     60


                       ****Iteration    0****

   Memory handling for direct AO based CIS:
   Memory per vector needed      ...     1 MB
   Memory needed                 ...    23 MB
   Memory available              ...   512 MB
   Number of vectors per batch   ...   391
   Number of batches             ...     1
   Time for densities:     0.022
   Time for RI-J (Direct):     4.710
   Time for K (COSX):     3.902
   Time for XC-Integration:     2.455
   Time for Sigma-Completion:     0.085
   Size of expansion space: 18
   Lowest Energy          :    -0.004754578255
   Maximum Energy change  :     0.169299260132 (vector 5)
   Maximum residual norm  :     0.005402543536

                       ****Iteration    1****
   Time for densities:     0.007
   Time for RI-J (Direct):     1.606
   Time for K (COSX):     3.159
   Time for XC-Integration:     0.859
   Time for Sigma-Completion:     0.029
   Size of expansion space: 24
   Lowest Energy          :    -0.008237979324
   Maximum Energy change  :     0.008552764363 (vector 4)
   Maximum residual norm  :     0.001050289617

                       ****Iteration    2****
   Time for densities:     0.007
   Time for RI-J (Direct):     1.617
   Time for K (COSX):     3.145
   Time for XC-Integration:     0.863
   Time for Sigma-Completion:     0.029
   Size of expansion space: 30
   Lowest Energy          :    -0.008266405465
   Maximum Energy change  :     0.003742835148 (vector 3)
   Maximum residual norm  :     0.002180403554

                       ****Iteration    3****
   Time for densities:     0.007
   Time for RI-J (Direct):     1.621
   Time for K (COSX):     3.150
   Time for XC-Integration:     0.870
   Time for Sigma-Completion:     0.029
   Size of expansion space: 36
   Lowest Energy          :    -0.008266854659
   Maximum Energy change  :     0.005375960331 (vector 3)
   Maximum residual norm  :     0.000339498987

                       ****Iteration    4****
   Time for densities:     0.007
   Time for RI-J (Direct):     1.621
   Time for K (COSX):     3.152
   Time for XC-Integration:     0.870
   Time for Sigma-Completion:     0.029
   Size of expansion space: 42
   Lowest Energy          :    -0.008266862242
   Maximum Energy change  :     0.000581354439 (vector 3)
   Maximum residual norm  :     0.000054414826

                       ****Iteration    5****
   Time for densities:     0.007
   Time for RI-J (Direct):     1.621
   Time for K (COSX):     3.140
   Time for XC-Integration:     0.837
   Time for Sigma-Completion:     0.028
   Size of expansion space: 48
   Lowest Energy          :    -0.008266862378
   Maximum Energy change  :     0.000064063343 (vector 3)
   Maximum residual norm  :     0.000004675446

                       ****Iteration    6****
   Time for densities:     0.007
   Time for RI-J (Direct):     1.566
   Time for K (COSX):     2.999
   Time for XC-Integration:     0.828
   Time for Sigma-Completion:     0.027
   Size of expansion space: 54
   Lowest Energy          :    -0.008266862382
   Maximum Energy change  :     0.000005002215 (vector 3)
   Maximum residual norm  :     0.000000396175

      *** CONVERGENCE OF RESIDUAL NORM REACHED ***

Storing the converged CI vectors               ... /scratch/ch1tk/orca.15439/wB97XD3_def2-SVP_toluene_S0_TDA6S_2-60.cis1

                 *** DAVIDSON DONE ***

Total time for solving the CIS problem:    45.066sec

-------------------------
TD-DFT/TDA EXCITED STATES
-------------------------

the weight of the individual excitations are printed if larger than 0.01

STATE  1:  E=  -0.008267 au     -0.225 eV    -1814.4 cm**-1
    18a ->  25a  :     0.038064 (c= -0.19509877)
    21a ->  25a  :     0.162747 (c= -0.40341944)
    24a ->  25a  :     0.794835 (c=  0.89153544)

STATE  2:  E=   0.103408 au      2.814 eV    22695.4 cm**-1
    23a ->  25a  :     0.998440 (c=  0.99921988)

STATE  3:  E=   0.135239 au      3.680 eV    29681.6 cm**-1
    18a ->  25a  :     0.360671 (c=  0.60055882)
    21a ->  25a  :     0.444552 (c=  0.66674707)
    24a ->  25a  :     0.190696 (c=  0.43668768)

STATE  4:  E=   0.145654 au      3.963 eV    31967.4 cm**-1
    13a ->  25a  :     0.022694 (c=  0.15064576)
    15a ->  25a  :     0.141184 (c=  0.37574503)
    16a ->  25a  :     0.174153 (c= -0.41731690)
    19a ->  25a  :     0.150425 (c= -0.38784694)
    22a ->  25a  :     0.495753 (c= -0.70409743)

STATE  5:  E=   0.155091 au      4.220 eV    34038.5 cm**-1
    23a ->  26a  :     0.156566 (c=  0.39568449)
    24a ->  27a  :     0.329830 (c=  0.57430853)
    21b ->  32b  :     0.010568 (c=  0.10279984)
    23b ->  25b  :     0.154693 (c=  0.39330994)
    24b ->  26b  :     0.307513 (c= -0.55453879)

STATE  6:  E=   0.162488 au      4.422 eV    35661.9 cm**-1
    24a ->  26a  :     0.537458 (c= -0.73311549)
    23b ->  26b  :     0.010051 (c= -0.10025429)
    24b ->  25b  :     0.426303 (c=  0.65291891)


-----------------------------
TD-DFT/TDA-EXCITATION SPECTRA
-----------------------------

Center of mass = (  0.0136,  0.0531,  0.0000)
Calculating the Dipole integrals                  ... done
Transforming integrals                            ... done
Calculating the Linear Momentum integrals         ... done
Transforming integrals                            ... done
Calculating angular momentum integrals            ... done
Transforming integrals                            ... done

-----------------------------------------------------------------------------
         ABSORPTION SPECTRUM VIA TRANSITION ELECTRIC DIPOLE MOMENTS
-----------------------------------------------------------------------------
State   Energy  Wavelength   fosc         T2         TX        TY        TZ  
        (cm-1)    (nm)                  (au**2)     (au)      (au)      (au) 
-----------------------------------------------------------------------------
   1   -1814.4   -5511.6   -0.000000000   0.00000   0.00000   0.00004  -0.00006
   2   22695.4    440.6   0.000033924   0.00049  -0.00002   0.00000  -0.02218
   3   29681.6    336.9   0.000000721   0.00001  -0.00003   0.00003   0.00283
   4   31967.4    312.8   0.028078939   0.28917  -0.43742  -0.31278  -0.00000
   5   34038.5    293.8   0.000182949   0.00177  -0.00142   0.04204  -0.00000
   6   35661.9    280.4   0.000385465   0.00356   0.05907   0.00834  -0.00000

-----------------------------------------------------------------------------
         ABSORPTION SPECTRUM VIA TRANSITION VELOCITY DIPOLE MOMENTS
-----------------------------------------------------------------------------
State   Energy  Wavelength   fosc         P2         PX        PY        PZ  
        (cm-1)    (nm)                  (au**2)     (au)      (au)      (au) 
-----------------------------------------------------------------------------
   1   -1814.4   -5511.6   -0.000022230   0.00000  -0.00000   0.00000  -0.00053
   2   22695.4    440.6   0.001414296   0.00022  -0.00000   0.00000  -0.01481
   3   29681.6    336.9   0.000016159   0.00000  -0.00000   0.00001   0.00181
   4   31967.4    312.8   0.016650435   0.00364   0.02510   0.05484   0.00000
   5   34038.5    293.8   0.000020969   0.00000   0.00008   0.00221  -0.00000
   6   35661.9    280.4   0.000034502   0.00001   0.00179  -0.00228  -0.00000

-------------------------------------------------------------------
                             CD SPECTRUM
-------------------------------------------------------------------
State   Energy Wavelength       R         MX        MY        MZ   
        (cm-1)   (nm)       (1e40*cgs)   (au)      (au)      (au)  
-------------------------------------------------------------------
   1   -1814.4   -5511.6     -0.00779   0.03619  -0.38083   0.00000
   2   22695.4    440.6     -0.00015   0.01944   0.00274  -0.00001
   3   29681.6    336.9      0.00313  -0.02013   0.21716   0.00004
   4   31967.4    312.8      0.00576  -0.00001  -0.00002   0.38382
   5   34038.5    293.8     -0.00012   0.00000  -0.00001   0.00850
   6   35661.9    280.4     -0.00005  -0.00000   0.00000   0.02173

Total run time:       45.629 sec

           *** ORCA-CIS/TD-DFT FINISHED WITHOUT ERROR ***

-----------------------
CIS/TD-DFT TOTAL ENERGY
-----------------------

    E(SCF)  =   -306.976397420 Eh
    DE(CIS) =     -0.008266862 Eh (Root  1)
    ----------------------------- ---------
    E(tot)  =   -306.984664283 Eh



-------------------------------------------------------------------------------
                          DFT DISPERSION CORRECTION                            
                                                                               
                              DFTD3 V3.1  Rev 1                                
                              USING zero damping                               
-------------------------------------------------------------------------------
The omegaB97X-D3 functional is recognized. Fit by Chai et al.
Active option DFTDOPT                   ...         3   

molecular C6(AA) [au] = 2038.051633 


            DFT-D V3
 parameters
 s6 scaling factor         :     1.0000 
 rs6 scaling factor        :     1.2810 
 s8 scaling factor         :     1.0000 
 rs8 scaling factor        :     1.0940 
 Damping factor alpha6     :    14.0000 
 Damping factor alpha8     :    16.0000 
 ad hoc parameters k1-k3   :    16.0000     1.3333    -4.0000 

 Edisp/kcal,au: -2.018327351922  -0.003216409027 
 E6   /kcal   :  -0.826466318 
 E8   /kcal   :  -1.191861034 
 % E8         :  59.051919035 

-------------------------   ----------------
Dispersion correction           -0.003216409
-------------------------   ----------------


-------------------------   --------------------
FINAL SINGLE POINT ENERGY      -306.979613829175
-------------------------   --------------------


                            ***************************************
                            *     ORCA property calculations      *
                            ***************************************

                                    ---------------------
                                    Active property flags
                                    ---------------------
   (+) Dipole Moment


------------------------------------------------------------------------------
                       ORCA ELECTRIC PROPERTIES CALCULATION
------------------------------------------------------------------------------

Dipole Moment Calculation                       ... on
Quadrupole Moment Calculation                   ... off
Polarizability Calculation                      ... off
GBWName                                         ... /scratch/ch1tk/orca.15439/wB97XD3_def2-SVP_toluene_S0_TDA6S_2-60.gbw
Electron density file                           ... /scratch/ch1tk/orca.15439/wB97XD3_def2-SVP_toluene_S0_TDA6S_2-60.scfp.tmp
The origin for moment calculation is the CENTER OF MASS  = ( 0.013621,  0.053116  0.000000)

-------------
DIPOLE MOMENT
-------------
                                X             Y             Z
Electronic contribution:     -2.08227       0.97710      -0.00000
Nuclear contribution   :      2.17309      -1.45613       0.00000
                        -----------------------------------------
Total Dipole Moment    :      0.09083      -0.47903      -0.00000
                        -----------------------------------------
Magnitude (a.u.)       :      0.48756
Magnitude (Debye)      :      1.23929


Timings for individual modules:

Sum of individual times         ...      248.164 sec (=   4.136 min)
GTO integral calculation        ...        0.263 sec (=   0.004 min)   0.1 %
SCF iterations                  ...      202.242 sec (=   3.371 min)  81.5 %
CIS module                      ...       45.659 sec (=   0.761 min)  18.4 %
                             ****ORCA TERMINATED NORMALLY****
TOTAL RUN TIME: 0 days 0 hours 4 minutes 8 seconds 420 msec
