
                                 *****************
                                 * O   R   C   A *
                                 *****************

           --- An Ab Initio, DFT and Semiempirical electronic structure package ---

                  #######################################################
                  #                        -***-                        #
                  #  Department of molecular theory and spectroscopy    #
                  #              Directorship: Frank Neese              #
                  # Max Planck Institute for Chemical Energy Conversion #
                  #                  D-45470 Muelheim/Ruhr              #
                  #                       Germany                       #
                  #                                                     #
                  #                  All rights reserved                #
                  #                        -***-                        #
                  #######################################################


                         Program Version 4.0.1.2 - RELEASE -


 With contributions from (in alphabetic order):
   Daniel Aravena         : Magnetic Properties
   Michael Atanasov       : Ab Initio Ligand Field Theory
   Ute Becker             : Parallelization
   Martin Brehm           : Molecular dynamics
   Dmytro Bykov           : SCF Hessian
   Vijay G. Chilkuri      : MRCI spin determinant printing
   Dipayan Datta          : RHF DLPNO-CCSD density
   Achintya Kumar Dutta   : EOM-CC, STEOM-CC
   Dmitry Ganyushin       : Spin-Orbit,Spin-Spin,Magnetic field MRCI
   Yang Guo               : DLPNO-NEVPT2, CIM, IAO-localization
   Andreas Hansen         : Spin unrestricted coupled pair/coupled cluster methods
   Lee Huntington         : MR-EOM, pCC
   Robert Izsak           : Overlap fitted RIJCOSX, COSX-SCS-MP3, EOM
   Christian Kollmar      : KDIIS, OOCD, Brueckner-CCSD(T), CCSD density
   Simone Kossmann        : Meta GGA functionals, TD-DFT gradient, OOMP2, MP2 Hessian
   Martin Krupicka        : AUTO-CI
   Dagmar Lenk            : GEPOL surface
   Dimitrios Liakos       : Extrapolation schemes; parallel MDCI
   Dimitrios Manganas     : ROCIS; embedding schemes
   Dimitrios Pantazis     : SARC Basis sets
   Taras Petrenko         : DFT Hessian,TD-DFT gradient, ASA, ECA, R-Raman, ABS, FL, XAS/XES, NRVS
   Peter Pinski           : DLPNO-MP2
   Christoph Reimann      : Effective Core Potentials
   Marius Retegan         : Local ZFS, SOC
   Christoph Riplinger    : Optimizer, TS searches, QM/MM, DLPNO-CCSD(T), (RO)-DLPNO pert. Triples
   Tobias Risthaus        : Range-separated hybrids, TD-DFT gradient, RPA, STAB
   Michael Roemelt        : Restricted open shell CIS
   Masaaki Saitow         : Open-shell DLPNO
   Barbara Sandhoefer     : DKH picture change effects
   Kantharuban Sivalingam : CASSCF convergence, NEVPT2, FIC-MRCI
   Georgi Stoychev        : AutoAux
   Boris Wezisla          : Elementary symmetry handling
   Frank Wennmohs         : Technical directorship


 We gratefully acknowledge several colleagues who have allowed us to
 interface, adapt or use parts of their codes:
   Stefan Grimme, W. Hujo, H. Kruse,             : VdW corrections, initial TS optimization,
                  C. Bannwarth                     DFT functionals, gCP, sTDA/sTD-DF
   Ed Valeev                                     : LibInt (2-el integral package), F12 methods
   Garnet Chan, S. Sharma, J. Yang, R. Olivares  : DMRG
   Ulf Ekstrom                                   : XCFun DFT Library
   Mihaly Kallay                                 : mrcc  (arbitrary order and MRCC methods)
   Andreas Klamt, Michael Diedenhofen            : otool_cosmo (COSMO solvation model)
   Jiri Pittner, Ondrej Demel                    : Mk-CCSD
   Frank Weinhold                                : gennbo (NPA and NBO analysis)
   Christopher J. Cramer and Donald G. Truhlar   : smd solvation model


 Your calculation uses the libint2 library for the computation of 2-el integrals
 For citations please refer to: http://libint.valeyev.net

 This ORCA versions uses:
   CBLAS   interface :  Fast vector & matrix operations
   LAPACKE interface :  Fast linear algebra routines
   SCALAPACK package :  Parallel linear algebra routines


Your calculation utilizes the atom-pairwise dispersion correction
with the zero-damping scheme (D30)
Cite in your paper:
S.Grimme, J.Antony, S.Ehrlich and H.Krieg, J.Chem.Phys., 132, (2010), 154104 
   

XCFun DFT library Copyright 2009-2010 Ulf Ekstrom and contributors.
See http://admol.org/xcfun for more information. This is free soft-
ware; see the source code for copying conditions. There is ABSOLUTELY
NO WARRANTY; not even for MERCHANTABILITY or FITNESS FOR A PARTICULAR
PURPOSE. For details see the documentation. Scientific users of this 
library should cite U. Ekstrom, L. Visscher, R. Bast, A. J. Thorvald-
sen and K. Ruud; J.Chem.Theor.Comp. 2010, DOI: 10.1021/ct100117s
XCFun Version 0.99 
Your calculation utilizes the basis: def2-SVP
   F. Weigend and R. Ahlrichs, Phys. Chem. Chem. Phys. 7, 3297 (2005).

Your calculation utilizes the auxiliary basis: def2/JK
   H-Ba, Hf-Rn: F. Weigend, J. Comput. Chem. 29, 167 (2008).

WARNING: Overwriting auxiliary coulomb basis with /JK basis!
================================================================================
                                        WARNINGS
                       Please study these warnings very carefully!
================================================================================

Warning: TCutStore was < 0. Adjusted to Thresh (uncritical)
INFO   : Checking CIS options ...

WARNING: CIS/ROCIS methods need fully converged wavefunctions
  ===> : Setting SCFConvForced true
         You can overwrite this default with %scf ConvForced false 


INFO   : the flag for use of LIBINT has been found!

================================================================================
                                       INPUT FILE
================================================================================
NAME = /scratch/ch1tk/orca.15388/wB97XD3_def2-SVP_toluene_S0_TDA6S_2-00.inp
|  1> ! UKS wB97X-D3 def2-SVP RIJCOSX def2/JK SlowConv
|  2>  
|  3> 
|  4> %scf
|  5> 	MaxIter		500
|  6> 	STABPerform	True
|  7> end
|  8> 
|  9> %tddft
| 10> 	NRoots 6
| 11> end
| 12> 
| 13> * xyz 0 1
| 14>  C                 -1.18578599   -1.17301779    0.00000000
| 15>  C                 -1.22528521    0.21672485    0.00000000
| 16>  C                 -0.03021307    0.94488843    0.00000000
| 17>  C                  1.19387265    0.26897053    0.00000000
| 18>  C                  1.21998389   -1.12396818    0.00000000
| 19>  C                  0.03366349   -1.85245673    0.00000000
| 20>  H                 -2.12142076   -1.73821028    0.00000000
| 21>  H                 -2.17044776    0.76362561    0.00000000
| 22>  H                  2.12866956    0.83920121    0.00000000
| 23>  H                  2.18175171   -1.64285600    0.00000000
| 24>  H                  0.05704252   -2.94432740    0.00000000
| 25>  O                 -0.11105943    2.29589847    0.00000000
| 26>  H                  1.73268686    3.07088209    0.00000000
| 27> end
| 28> 
| 29>                          ****END OF INPUT****
================================================================================

                       ****************************
                       * Single Point Calculation *
                       ****************************

---------------------------------
CARTESIAN COORDINATES (ANGSTROEM)
---------------------------------
  C     -1.185786   -1.173018    0.000000
  C     -1.225285    0.216725    0.000000
  C     -0.030213    0.944888    0.000000
  C      1.193873    0.268971    0.000000
  C      1.219984   -1.123968    0.000000
  C      0.033663   -1.852457    0.000000
  H     -2.121421   -1.738210    0.000000
  H     -2.170448    0.763626    0.000000
  H      2.128670    0.839201    0.000000
  H      2.181752   -1.642856    0.000000
  H      0.057043   -2.944327    0.000000
  O     -0.111059    2.295898    0.000000
  H      1.732687    3.070882    0.000000

----------------------------
CARTESIAN COORDINATES (A.U.)
----------------------------
  NO LB      ZA    FRAG     MASS         X           Y           Z
   0 C     6.0000    0    12.011   -2.240811   -2.216682    0.000000
   1 C     6.0000    0    12.011   -2.315453    0.409551    0.000000
   2 C     6.0000    0    12.011   -0.057094    1.785580    0.000000
   3 C     6.0000    0    12.011    2.256092    0.508281    0.000000
   4 C     6.0000    0    12.011    2.305435   -2.123992    0.000000
   5 C     6.0000    0    12.011    0.063615   -3.500636    0.000000
   6 H     1.0000    0     1.008   -4.008904   -3.284741    0.000000
   7 H     1.0000    0     1.008   -4.101552    1.443043    0.000000
   8 H     1.0000    0     1.008    4.022602    1.585860    0.000000
   9 H     1.0000    0     1.008    4.122913   -3.104548    0.000000
  10 H     1.0000    0     1.008    0.107795   -5.563972    0.000000
  11 O     8.0000    0    15.999   -0.209872    4.338619    0.000000
  12 H     1.0000    0     1.008    3.274304    5.803126    0.000000

--------------------------------
INTERNAL COORDINATES (ANGSTROEM)
--------------------------------
 C      0   0   0     0.000000000000     0.00000000     0.00000000
 C      1   0   0     1.390303849457     0.00000000     0.00000000
 C      2   1   0     1.399435464408   119.72614521     0.00000000
 C      3   2   1     1.398302848974   119.73915203     0.00000000
 C      4   3   2     1.393183421761   119.98059071     0.00000000
 C      5   4   3     1.392139238344   120.47909682     0.00000000
 H      1   2   3     1.093094219903   119.50705551   180.00000085
 H      2   1   3     1.091985662548   121.68304388   180.00000000
 H      4   3   2     1.094992370457   119.70992277   180.00000000
 H      5   4   3     1.092813757843   119.42141969   180.00000000
 H      6   5   4     1.092120936092   120.32638097   180.00000085
 O      3   2   1     1.353426858794   117.92958877   180.00000000
 H     12   3   2     1.999999998289   109.37394533   180.00000085

---------------------------
INTERNAL COORDINATES (A.U.)
---------------------------
 C      0   0   0     0.000000000000     0.00000000     0.00000000
 C      1   0   0     2.627293518410     0.00000000     0.00000000
 C      2   1   0     2.644549769828   119.72614521     0.00000000
 C      3   2   1     2.642409436842   119.73915203     0.00000000
 C      4   3   2     2.632735121448   119.98059071     0.00000000
 C      5   4   3     2.630761900756   120.47909682     0.00000000
 H      1   2   3     2.065648714189   119.50705551   180.00000085
 H      2   1   3     2.063553844385   121.68304388   180.00000000
 H      4   3   2     2.069235698897   119.70992277   180.00000000
 H      5   4   3     2.065118717705   119.42141969   180.00000000
 H      6   5   4     2.063809474335   120.32638097   180.00000085
 O      3   2   1     2.557606105415   117.92958877   180.00000000
 H     12   3   2     3.779452264610   109.37394533   180.00000085

---------------------
BASIS SET INFORMATION
---------------------
There are 3 groups of distinct atoms

 Group   1 Type C   : 7s4p1d contracted to 3s2p1d pattern {511/31/1}
 Group   2 Type H   : 4s1p contracted to 2s1p pattern {31/1}
 Group   3 Type O   : 7s4p1d contracted to 3s2p1d pattern {511/31/1}

Atom   0C    basis set group =>   1
Atom   1C    basis set group =>   1
Atom   2C    basis set group =>   1
Atom   3C    basis set group =>   1
Atom   4C    basis set group =>   1
Atom   5C    basis set group =>   1
Atom   6H    basis set group =>   2
Atom   7H    basis set group =>   2
Atom   8H    basis set group =>   2
Atom   9H    basis set group =>   2
Atom  10H    basis set group =>   2
Atom  11O    basis set group =>   3
Atom  12H    basis set group =>   2
-------------------------------
AUXILIARY BASIS SET INFORMATION
-------------------------------
There are 3 groups of distinct atoms

 Group   1 Type C   : 14s10p6d2f1g contracted to 10s8p5d1f1g pattern {5111111111/31111111/21111/2/1}
 Group   2 Type H   : 4s2p2d contracted to 2s2p2d pattern {31/11/11}
 Group   3 Type O   : 14s10p6d2f1g contracted to 10s8p4d2f1g pattern {5111111111/31111111/3111/11/1}

Atom   0C    basis set group =>   1
Atom   1C    basis set group =>   1
Atom   2C    basis set group =>   1
Atom   3C    basis set group =>   1
Atom   4C    basis set group =>   1
Atom   5C    basis set group =>   1
Atom   6H    basis set group =>   2
Atom   7H    basis set group =>   2
Atom   8H    basis set group =>   2
Atom   9H    basis set group =>   2
Atom  10H    basis set group =>   2
Atom  11O    basis set group =>   3
Atom  12H    basis set group =>   2
------------------------------------------------------------------------------
                           ORCA GTO INTEGRAL CALCULATION
                           -- RI-GTO INTEGRALS CHOSEN --
------------------------------------------------------------------------------

                         BASIS SET STATISTICS AND STARTUP INFO

Gaussian basis set:
 # of primitive gaussian shells          ...  114
 # of primitive gaussian functions       ...  210
 # of contracted shells                  ...   60
 # of contracted basis functions         ...  128
 Highest angular momentum                ...    2
 Maximum contraction depth               ...    5
Auxiliary gaussian basis set:
 # of primitive gaussian shells          ...  279
 # of primitive gaussian functions       ...  799
 # of contracted shells                  ...  211
 # of contracted aux-basis functions     ...  635
 Highest angular momentum                ...    4
 Maximum contraction depth               ...    5
Ratio of auxiliary to basis functions    ...  4.96
Integral package used                  ... LIBINT
 One Electron integrals                  ... done
 Ordering auxiliary basis shells         ... done
 Integral threshhold             Thresh  ...  1.000e-10
 Primitive cut-off               TCut    ...  1.000e-11
 Pre-screening matrix                    ... done
 Shell pair data                         ... 
 Ordering of the shell pairs             ... done (   0.000 sec) 1761 of 1830 pairs
 Determination of significant pairs      ... done (   0.000 sec)
 Creation of shell pair data             ... done (   0.001 sec)
 Storage of shell pair data              ... done (   0.001 sec)
 Shell pair data done in (   0.002 sec)
 Computing two index integrals           ... done
 Cholesky decomposition of the V-matrix  ... done


Timings:
 Total evaluation time                   ...   0.216 sec (  0.004 min)
 One electron matrix time                ...   0.016 sec (  0.000 min) =  7.2%
 Schwartz matrix evaluation time         ...   0.148 sec (  0.002 min) = 68.3%
 Two index repulsion integral time       ...   0.015 sec (  0.000 min) =  6.7%
 Cholesky decomposition of V             ...   0.013 sec (  0.000 min) =  6.2%
 Three index repulsion integral time     ...   0.000 sec (  0.000 min) =  0.0%

-------------------------------------------------------------------------------
                                 ORCA SCF
-------------------------------------------------------------------------------

------------
SCF SETTINGS
------------
Hamiltonian:
 Density Functional     Method          .... DFT(GTOs)
 Exchange Functional    Exchange        .... WB97X-D3
 Correlation Functional Correlation     .... WB97X-D3
 Gradients option       PostSCFGGA      .... off
 Hybrid DFT is turned on
   Fraction HF Exchange ScalHFX         ....  0.195728
   Scaling of DF-GGA-X  ScalDFX         ....  0.000000
   Scaling of DF-GGA-C  ScalDFC         ....  1.000000
   Scaling of DF-LDA-C  ScalLDAC        ....  1.000000
   Perturbative correction              ....  0.000000
 Long-range corrected/Screened/Range-Separated Hybrid DFT is turned on
   Amount of maximum screened exact exchange              ....  0.804272
   Range separation parameter mu (erf(mu*r12)/r12)        ....  0.250000
 RI-approximation to the Coulomb term is turned on
   Number of auxiliary basis functions  .... 635
   RIJ-COSX (HFX calculated with COS-X)).... on


General Settings:
 Integral files         IntName         .... /scratch/ch1tk/orca.15388/wB97XD3_def2-SVP_toluene_S0_TDA6S_2-00
 Hartree-Fock type      HFTyp           .... UHF
 Total Charge           Charge          ....    0
 Multiplicity           Mult            ....    1
 Number of Electrons    NEL             ....   50
 Basis Dimension        Dim             ....  128
 Nuclear Repulsion      ENuc            ....    267.7158633514 Eh

Convergence Acceleration:
 DIIS                   CNVDIIS         .... on
   Start iteration      DIISMaxIt       ....     0
   Startup error        DIISStart       ....  0.200000
   # of expansion vecs  DIISMaxEq       ....     5
   Bias factor          DIISBfac        ....   1.050
   Max. coefficient     DIISMaxC        ....  10.000
 Newton-Raphson         CNVNR           .... off
 SOSCF                  CNVSOSCF        .... off
 Level Shifting         CNVShift        .... on
   Level shift para.    LevelShift      ....    0.2500
   Turn off err/grad.   ShiftErr        ....    0.0000
 Zerner damping         CNVZerner       .... off
 Static damping         CNVDamp         .... on
   Fraction old density DampFac         ....    0.8500
   Max. Damping (<1)    DampMax         ....    0.9800
   Min. Damping (>=0)   DampMin         ....    0.0000
   Turn off err/grad.   DampErr         ....    0.0300
 Fernandez-Rico         CNVRico         .... off

SCF Procedure:
 Maximum # iterations   MaxIter         ....   500
 SCF integral mode      SCFMode         .... Direct
   Integral package                     .... LIBINT
 Reset frequeny         DirectResetFreq ....    20
 Integral Threshold     Thresh          ....  1.000e-10 Eh
 Primitive CutOff       TCut            ....  1.000e-11 Eh

Convergence Tolerance:
 Convergence Check Mode ConvCheckMode   .... Total+1el-Energy
 Convergence forced     ConvForced      .... 1
 Energy Change          TolE            ....  1.000e-06 Eh
 1-El. energy change                    ....  1.000e-03 Eh
 DIIS Error             TolErr          ....  1.000e-06


Diagonalization of the overlap matrix:
Smallest eigenvalue                        ... 2.787e-04
Time for diagonalization                   ...    0.004 sec
Threshold for overlap eigenvalues          ... 1.000e-08
Number of eigenvalues below threshold      ... 0
Time for construction of square roots      ...    0.001 sec
Total time needed                          ...    0.005 sec

-------------------
DFT GRID GENERATION
-------------------

General Integration Accuracy     IntAcc      ...  4.340
Radial Grid Type                 RadialGrid  ... Gauss-Chebyshev
Angular Grid (max. acc.)         AngularGrid ... Lebedev-110
Angular grid pruning method      GridPruning ... 3 (G Style)
Weight generation scheme         WeightScheme... Becke
Basis function cutoff            BFCut       ...    1.0000e-10
Integration weight cutoff        WCut        ...    1.0000e-14
Grids for H and He will be reduced by one unit

# of grid points (after initial pruning)     ...  16416 (   0.0 sec)
# of grid points (after weights+screening)   ...  15356 (   0.0 sec)
nearest neighbour list constructed           ...    0.0 sec
Grid point re-assignment to atoms done       ...    0.0 sec
Grid point division into batches done        ...    0.0 sec
Reduced shell lists constructed in    0.3 sec

Total number of grid points                  ...    15356
Total number of batches                      ...      246
Average number of points per batch           ...       62
Average number of grid points per atom       ...     1181
Average number of shells per batch           ...    44.13 (73.55%)
Average number of basis functions per batch  ...    93.83 (73.30%)
Average number of large shells per batch     ...    35.50 (80.45%)
Average number of large basis fcns per batch ...    74.54 (79.44%)
Maximum spatial batch extension              ...  22.52, 16.74, 25.60 au
Average spatial batch extension              ...   4.02,  3.55,  5.43 au

Time for grid setup =    0.301 sec

------------------------------
INITIAL GUESS: MODEL POTENTIAL
------------------------------
Loading Hartree-Fock densities                     ... done
Calculating cut-offs                               ... done
Setting up the integral package                    ... done
Initializing the effective Hamiltonian             ... done
Starting the Coulomb interaction                   ... done (   0.1 sec)
Reading the grid                                   ... done
Mapping shells                                     ... done
Starting the XC term evaluation                    ... done (   0.3 sec)
  promolecular density results
     # of electrons  =     50.000040656
     EX              =    -40.502185026
     EC              =     -1.634856414
     EX+EC           =    -42.137041439
Transforming the Hamiltonian                       ... done (   0.0 sec)
Diagonalizing the Hamiltonian                      ... done (   0.0 sec)
Back transforming the eigenvectors                 ... done (   0.0 sec)
Now organizing SCF variables                       ... done
                      ------------------
                      INITIAL GUESS DONE (   0.8 sec)
                      ------------------
--------------------
COSX GRID GENERATION
--------------------

General Integration Accuracy     IntAcc      ...  3.340
Radial Grid Type                 RadialGrid  ... Gauss-Chebyshev
Angular Grid (max. acc.)         AngularGrid ... Lebedev-50
Angular grid pruning method      GridPruning ... 3 (G Style)
Weight generation scheme         WeightScheme... Becke
Basis function cutoff            BFCut       ...    1.0000e-10
Integration weight cutoff        WCut        ...    1.0000e-14
Grids for H and He will be reduced by one unit

# of grid points (after initial pruning)     ...   5980 (   0.0 sec)
# of grid points (after weights+screening)   ...   5660 (   0.0 sec)
nearest neighbour list constructed           ...    0.0 sec
Grid point re-assignment to atoms done       ...    0.0 sec
Grid point division into batches done        ...    0.0 sec
Reduced shell lists constructed in    0.1 sec

Total number of grid points                  ...     5660
Total number of batches                      ...       95
Average number of points per batch           ...       59
Average number of grid points per atom       ...      435
Average number of shells per batch           ...    46.95 (78.25%)
Average number of basis functions per batch  ...   100.57 (78.57%)
Average number of large shells per batch     ...    38.76 (82.56%)
Average number of large basis fcns per batch ...    82.59 (82.12%)
Maximum spatial batch extension              ...  16.61, 14.62, 35.81 au
Average spatial batch extension              ...   4.92,  4.72,  7.49 au

Overlap Fitting                  UseSFitting ... on
Constructing numerical overlap ... done (      0.1 sec)
Inverting numerical overlap    ... done (      0.0 sec)
Obtaining analytic overlap     ... done (      0.0 sec)
Final contraction and storage  ... done (      0.0 sec)


General Integration Accuracy     IntAcc      ...  3.670
Radial Grid Type                 RadialGrid  ... Gauss-Chebyshev
Angular Grid (max. acc.)         AngularGrid ... Lebedev-50
Angular grid pruning method      GridPruning ... 3 (G Style)
Weight generation scheme         WeightScheme... Becke
Basis function cutoff            BFCut       ...    1.0000e-10
Integration weight cutoff        WCut        ...    1.0000e-14
Grids for H and He will be reduced by one unit

# of grid points (after initial pruning)     ...   7582 (   0.0 sec)
# of grid points (after weights+screening)   ...   7154 (   0.0 sec)
nearest neighbour list constructed           ...    0.0 sec
Grid point re-assignment to atoms done       ...    0.0 sec
Grid point division into batches done        ...    0.0 sec
Reduced shell lists constructed in    0.1 sec

Total number of grid points                  ...     7154
Total number of batches                      ...      117
Average number of points per batch           ...       61
Average number of grid points per atom       ...      550
Average number of shells per batch           ...    46.31 (77.19%)
Average number of basis functions per batch  ...    98.84 (77.22%)
Average number of large shells per batch     ...    37.71 (81.43%)
Average number of large basis fcns per batch ...    79.53 (80.46%)
Maximum spatial batch extension              ...  17.81, 15.26, 27.71 au
Average spatial batch extension              ...   4.55,  4.35,  7.11 au

Overlap Fitting                  UseSFitting ... on
Constructing numerical overlap ... done (      0.1 sec)
Inverting numerical overlap    ... done (      0.0 sec)
Obtaining analytic overlap     ... done (      0.0 sec)
Final contraction and storage  ... done (      0.0 sec)


General Integration Accuracy     IntAcc      ...  4.010
Radial Grid Type                 RadialGrid  ... Gauss-Chebyshev
Angular Grid (max. acc.)         AngularGrid ... Lebedev-110
Angular grid pruning method      GridPruning ... 3 (G Style)
Weight generation scheme         WeightScheme... Becke
Basis function cutoff            BFCut       ...    1.0000e-10
Integration weight cutoff        WCut        ...    1.0000e-14
Grids for H and He will be reduced by one unit

# of grid points (after initial pruning)     ...  14238 (   0.0 sec)
# of grid points (after weights+screening)   ...  13334 (   0.0 sec)
nearest neighbour list constructed           ...    0.0 sec
Grid point re-assignment to atoms done       ...    0.0 sec
Grid point division into batches done        ...    0.0 sec
Reduced shell lists constructed in    0.2 sec

Total number of grid points                  ...    13334
Total number of batches                      ...      214
Average number of points per batch           ...       62
Average number of grid points per atom       ...     1026
Average number of shells per batch           ...    44.67 (74.45%)
Average number of basis functions per batch  ...    94.98 (74.20%)
Average number of large shells per batch     ...    36.00 (80.59%)
Average number of large basis fcns per batch ...    75.50 (79.49%)
Maximum spatial batch extension              ...  21.45, 15.92, 31.02 au
Average spatial batch extension              ...   4.13,  3.58,  5.49 au

Overlap Fitting                  UseSFitting ... on
Constructing numerical overlap ... done (      0.1 sec)
Inverting numerical overlap    ... done (      0.0 sec)
Obtaining analytic overlap     ... done (      0.0 sec)
Final contraction and storage  ... done (      0.0 sec)

Time for X-Grid setup             =    0.837 sec
--------------
SCF ITERATIONS
--------------
ITER       Energy         Delta-E        Max-DP      RMS-DP      [F,P]     Damp
               ***  Starting incremental Fock matrix formation  ***
  0   -306.6786862716   0.000000000000 0.03151918  0.00082033  0.2783294 0.8500
  1   -306.7467093706  -0.068023098985 0.03291752  0.00080758  0.2188788 0.8500
                               ***Turning on DIIS***
  2   -306.7959135275  -0.049204156947 0.02678725  0.00065735  0.1551622 0.8500
  3   -306.8278526960  -0.031939168504 0.01421857  0.00045389  0.0993703 0.8500
  4   -306.8513329649  -0.023480268914 0.00802940  0.00033834  0.0750301 0.8500
  5   -306.8696567019  -0.018323736953 0.00601510  0.00026678  0.0647407 0.8500
  6   -306.8847006217  -0.015043919818 0.00526630  0.00021972  0.0578489 0.8500
  7   -306.8973462950  -0.012645673292 0.00522473  0.00018720  0.0513312 0.8500
  8   -306.9081138271  -0.010767532062 0.00460711  0.00016178  0.0434555 0.8500
  9   -306.9172255866  -0.009111759569 0.00369516  0.00013917  0.0363085 0.8500
 10   -306.9249210451  -0.007695458470 0.00303524  0.00011904  0.0310285 0.8500
 11   -306.9314376094  -0.006516564331 0.01768422  0.00067621  0.0269697 0.0000
 12   -306.9682636085  -0.036825999076 0.00098240  0.00002617  0.0018163 0.0000
 13   -306.9682744445  -0.000010835950 0.00065501  0.00001441  0.0016610 0.0000
               *** Restarting incremental Fock matrix formation ***
                                   *** Resetting DIIS ***
 14   -306.9682892513  -0.000014806830 0.00043428  0.00000958  0.0008129 0.0000
 15   -306.9682911089  -0.000001857616 0.00022935  0.00000533  0.0005210 0.0000
                 **** Energy Check signals convergence ****

               *****************************************************
               *                     SUCCESS                       *
               *           SCF CONVERGED AFTER  16 CYCLES          *
               *****************************************************


------------------------------------------------------------------------------
                          SCF STABILITY ANALYSIS                              
------------------------------------------------------------------------------


---------------
TD-DFT XC SETUP
---------------

DFT calculation                         ... on
Name of the grid file                   ... /scratch/ch1tk/orca.15388/wB97XD3_def2-SVP_toluene_S0_TDA6S_2-00.grid.tmp
Exchange functional (SCF)               ... WB97X-D3
Exchange functional (TD-DFT)            ... WB97X-D3
Correlation functional (SCF)            ... WB97X-D3
Correlation functional (TD-DFT)         ... WB97X-D3
Hybrid DFT                              ... on
   Exchange mixing (SCF)                ...  0.196
   Exchange mixing (TD-DFT)             ...  0.196
   GGA exch. scaling(SCF)               ...  0.000
   GGA exch. scaling (TD-DFT)           ...  0.000
   GGA corr. scaling (SCF)              ...  1.000
   GGA corr. scaling (TD-DFT)           ...  1.000
Range-Separated Exchange                ... on
   Range Range separation parameter mu  .... 0.250
   Max. amount of RS exchange (SCF)     ...  0.804
   Max. amount of RS exchange (TD-DFT)  ...  0.804

Electron density on the grid   ... found on disk
Building xc-kernel on the grid ... done
                    *** TD-DFT CALCULATION INITIALIZED ***

                       ****Iteration    0****

   Memory handling for direct AO based CIS:
   Memory per vector needed      ...     1 MB
   Memory needed                 ...     7 MB
   Memory available              ...  1024 MB
   Number of vectors per batch   ...   783
   Number of batches             ...     1
   Time for densities:     0.007
   Time for XC-Integration:     1.558
   Time for K (COSX):    11.299
   Time for RI-J (Direct):     1.644
   Time for Sigma-Completion:     0.029
   Lowest Energy          :    -0.030473900457
   Maximum Energy change  :     0.031086474593 (vector 2)
   Maximum residual norm  :     0.022861012280

                       ****Iteration    1****
   Time for densities:     0.004
   Time for XC-Integration:     0.878
   Time for K (COSX):    10.992
   Time for RI-J (Direct):     0.870
   Time for Sigma-Completion:     0.015
   Lowest Energy          :    -0.088476701959
   Maximum Energy change  :     0.058002801502 (vector 0)
   Maximum residual norm  :     0.001331399557

                       ****Iteration    2****
   Time for densities:     0.004
   Time for XC-Integration:     0.911
   Time for K (COSX):    11.039
   Time for RI-J (Direct):     0.869
   Time for Sigma-Completion:     0.014
   Lowest Energy          :    -0.090288698613
   Maximum Energy change  :     0.002416980641 (vector 1)
   Maximum residual norm  :     0.000112010523

                       ****Iteration    3****
   Time for densities:     0.004
   Time for XC-Integration:     0.906
   Time for K (COSX):    10.884
   Time for RI-J (Direct):     0.882
   Time for Sigma-Completion:     0.014
   Lowest Energy          :    -0.090358312860
   Maximum Energy change  :     0.000159448193 (vector 2)
   Maximum residual norm  :     0.000011183224

      *** CONVERGENCE OF RESIDUAL NORM REACHED ***

----------------------------- 
SCF STABILITY ANALYSIS RESULT 
----------------------------- 

UHF/UKS->UHF/UKS - singlet - internal

   Root    Eigenvalue (au) 
     0      -0.090358 
     1      -0.014332 
     2       0.020062 

Stability Analysis indicates an UNSTABLE HF/KS wave function with SEVERAL negative eigenvalues.

Since this is UHF/UKS, we will restart the SCF using a new guess based on the eigenvector 
associated with the lowest eigenvalue. Because there is no guarantee that the restart     
will result in a stable solution, the user should check the stability of the resulting    
wave function in a separate calculation using the MOREAD guess feature.

Obtain new guess               ... done 

Total time for performing the stability analysis:    52.871sec

--------------------------
SCF ITERATIONS (restarted)
--------------------------
ITER       Energy         Delta-E        Max-DP      RMS-DP      [F,P]     Damp
               ***  Starting incremental Fock matrix formation  ***
  0   -306.9810114748   0.000000000000 0.00178211  0.00003267  0.0093541 0.8500
  1   -306.9812242513  -0.000212776417 0.00209803  0.00004097  0.0076696 0.8500
                               ***Turning on DIIS***
  2   -306.9814691700  -0.000244918750 0.01384914  0.00028181  0.0062132 0.0000
  3   -306.9838748967  -0.002405726707 0.00790017  0.00013459  0.0030687 0.0000
  4   -306.9849105405  -0.001035643789 0.00917528  0.00016908  0.0028248 0.0000
  5   -306.9860955034  -0.001184962929 0.00853528  0.00015604  0.0017842 0.0000
  6   -306.9870177970  -0.000922293597 0.01121156  0.00020828  0.0013991 0.0000
  7   -306.9879153505  -0.000897553438 0.00537858  0.00010551  0.0007791 0.0000
  8   -306.9882043584  -0.000289007902 0.00357955  0.00007602  0.0006434 0.0000
  9   -306.9883348056  -0.000130447182 0.00330251  0.00007016  0.0006662 0.0000
 10   -306.9883956050  -0.000060799481 0.00102996  0.00001779  0.0008750 0.0000
 11   -306.9884028575  -0.000007252429 0.00109116  0.00002393  0.0003985 0.0000
 12   -306.9884079690  -0.000005111575 0.00027999  0.00000629  0.0003199 0.0000
                 **** Energy Check signals convergence ****

               *****************************************************
               *                     SUCCESS                       *
               *           SCF CONVERGED AFTER  13 CYCLES          *
               *****************************************************

Setting up the final grid:

General Integration Accuracy     IntAcc      ...  4.670
Radial Grid Type                 RadialGrid  ... Gauss-Chebyshev
Angular Grid (max. acc.)         AngularGrid ... Lebedev-302
Angular grid pruning method      GridPruning ... 3 (G Style)
Weight generation scheme         WeightScheme... Becke
Basis function cutoff            BFCut       ...    1.0000e-10
Integration weight cutoff        WCut        ...    1.0000e-14
Grids for H and He will be reduced by one unit

# of grid points (after initial pruning)     ...  63848 (   0.0 sec)
# of grid points (after weights+screening)   ...  59118 (   0.1 sec)
nearest neighbour list constructed           ...    0.0 sec
Grid point re-assignment to atoms done       ...    0.0 sec
Grid point division into batches done        ...    0.2 sec
Reduced shell lists constructed in    1.0 sec

Total number of grid points                  ...    59118
Total number of batches                      ...      929
Average number of points per batch           ...       63
Average number of grid points per atom       ...     4548
Average number of shells per batch           ...    40.12 (66.86%)
Average number of basis functions per batch  ...    84.84 (66.28%)
Average number of large shells per batch     ...    31.63 (78.85%)
Average number of large basis fcns per batch ...    65.80 (77.55%)
Maximum spatial batch extension              ...  17.18, 16.67, 23.18 au
Average spatial batch extension              ...   2.60,  2.50,  3.06 au

Final grid set up in    1.2 sec
Final integration                            ... done (   1.5 sec)
Change in XC energy                          ...     0.000960241
Integrated number of electrons               ...    49.999897807
Previous integrated no of electrons          ...    49.998506558
Old exchange energy                            =    -13.417444913 Eh
New exchange energy                            =    -13.417704492 Eh
Exchange energy change after final integration =     -0.000259580 Eh
Total energy after final integration           =   -306.987707895 Eh
Final COS-X integration done in                =     8.390 sec

----------------
TOTAL SCF ENERGY
----------------

Total Energy       :         -306.98770790 Eh           -8353.56022 eV

Components:
Nuclear Repulsion  :          267.71586335 Eh            7284.91900 eV
Electronic Energy  :         -574.70357125 Eh          -15638.47922 eV
One Electron Energy:         -945.05949989 Eh          -25716.37639 eV
Two Electron Energy:          370.35592865 Eh           10077.89717 eV

Virial components:
Potential Energy   :         -610.76010864 Eh          -16619.62748 eV
Kinetic Energy     :          303.77240075 Eh            8266.06726 eV
Virial Ratio       :            2.01058459


DFT components:
N(Alpha)           :       24.999917036558 electrons
N(Beta)            :       24.999980770874 electrons
N(Total)           :       49.999897807432 electrons
E(XC)              :      -29.663428218112 Eh       

---------------
SCF CONVERGENCE
---------------

  Last Energy change         ...   -5.8768e-07  Tolerance :   1.0000e-06
  Last MAX-Density change    ...    0.0000e+00  Tolerance :   1.0000e-05
  Last RMS-Density change    ...    0.0000e+00  Tolerance :   1.0000e-06
  Last DIIS Error            ...    1.3860e-04  Tolerance :   1.0000e-06

             **** THE GBW FILE WAS UPDATED (/scratch/ch1tk/orca.15388/wB97XD3_def2-SVP_toluene_S0_TDA6S_2-00.gbw) ****
             **** DENSITY FILE WAS UPDATED (/scratch/ch1tk/orca.15388/wB97XD3_def2-SVP_toluene_S0_TDA6S_2-00.scfp.tmp) ****
             **** ENERGY FILE WAS UPDATED (/scratch/ch1tk/orca.15388/wB97XD3_def2-SVP_toluene_S0_TDA6S_2-00.en.tmp) ****

     --------------------------------------------------------------------
                                      WARNING
     A stability analysis of the first UHF/UKS SCF solution was performed
     and an instability detected. The result was used as a guess for
     a second SCF, which has converged. There is no guarantee that the
     current solution is stable - it is up to you to rerun the stability
     analysis using the now stored solution as a guess and verify.
     --------------------------------------------------------------------

----------------------
UHF SPIN CONTAMINATION
----------------------

Warning: in a DFT calculation there is little theoretical justification to 
         calculate <S**2> as in Hartree-Fock theory. We will do it anyways
         but you should keep in mind that the values have only limited relevance

Expectation value of <S**2>     :     0.695145
Ideal value S*(S+1) for S=0.0   :     0.000000
Deviation                       :     0.695145

----------------
ORBITAL ENERGIES
----------------
                 SPIN UP ORBITALS
  NO   OCC          E(Eh)            E(eV) 
   0   1.0000     -19.314086      -525.5630 
   1   1.0000     -10.359695      -281.9016 
   2   1.0000     -10.302978      -280.3583 
   3   1.0000     -10.302512      -280.3456 
   4   1.0000     -10.300091      -280.2797 
   5   1.0000     -10.299577      -280.2657 
   6   1.0000     -10.290853      -280.0283 
   7   1.0000      -1.158550       -31.5258 
   8   1.0000      -0.969044       -26.3690 
   9   1.0000      -0.865336       -23.5470 
  10   1.0000      -0.844838       -22.9892 
  11   1.0000      -0.728187       -19.8150 
  12   1.0000      -0.700477       -19.0610 
  13   1.0000      -0.626939       -17.0599 
  14   1.0000      -0.589110       -16.0305 
  15   1.0000      -0.573956       -15.6181 
  16   1.0000      -0.537566       -14.6279 
  17   1.0000      -0.528118       -14.3708 
  18   1.0000      -0.526867       -14.3368 
  19   1.0000      -0.486301       -13.2329 
  20   1.0000      -0.462899       -12.5961 
  21   1.0000      -0.447497       -12.1770 
  22   1.0000      -0.435058       -11.8385 
  23   1.0000      -0.350146        -9.5280 
  24   1.0000      -0.316363        -8.6087 
  25   0.0000      -0.029458        -0.8016 
  26   0.0000       0.061633         1.6771 
  27   0.0000       0.079893         2.1740 
  28   0.0000       0.146864         3.9964 
  29   0.0000       0.186554         5.0764 
  30   0.0000       0.202369         5.5068 
  31   0.0000       0.232534         6.3276 
  32   0.0000       0.241773         6.5790 
  33   0.0000       0.249534         6.7902 
  34   0.0000       0.297875         8.1056 
  35   0.0000       0.355706         9.6793 
  36   0.0000       0.373354        10.1595 
  37   0.0000       0.384657        10.4670 
  38   0.0000       0.411903        11.2085 
  39   0.0000       0.443951        12.0805 
  40   0.0000       0.498761        13.5720 
  41   0.0000       0.499037        13.5795 
  42   0.0000       0.524010        14.2590 
  43   0.0000       0.533015        14.5041 
  44   0.0000       0.559760        15.2318 
  45   0.0000       0.581365        15.8197 
  46   0.0000       0.595809        16.2128 
  47   0.0000       0.629543        17.1307 
  48   0.0000       0.629645        17.1335 
  49   0.0000       0.635838        17.3020 
  50   0.0000       0.669495        18.2179 
  51   0.0000       0.697176        18.9711 
  52   0.0000       0.706413        19.2225 
  53   0.0000       0.714738        19.4490 
  54   0.0000       0.730700        19.8834 
  55   0.0000       0.746751        20.3201 
  56   0.0000       0.763891        20.7865 
  57   0.0000       0.782686        21.2980 
  58   0.0000       0.803862        21.8742 
  59   0.0000       0.816240        22.2110 
  60   0.0000       0.831479        22.6257 
  61   0.0000       0.837688        22.7947 
  62   0.0000       0.867126        23.5957 
  63   0.0000       0.894057        24.3285 
  64   0.0000       0.907364        24.6906 
  65   0.0000       0.956296        26.0221 
  66   0.0000       1.013806        27.5871 
  67   0.0000       1.077660        29.3246 
  68   0.0000       1.108492        30.1636 
  69   0.0000       1.149760        31.2866 
  70   0.0000       1.184909        32.2430 
  71   0.0000       1.274077        34.6694 
  72   0.0000       1.309571        35.6352 
  73   0.0000       1.328995        36.1638 
  74   0.0000       1.332928        36.2708 
  75   0.0000       1.363523        37.1034 
  76   0.0000       1.369157        37.2567 
  77   0.0000       1.392987        37.9051 
  78   0.0000       1.514599        41.2143 
  79   0.0000       1.554484        42.2997 
  80   0.0000       1.564568        42.5741 
  81   0.0000       1.579778        42.9879 
  82   0.0000       1.596843        43.4523 
  83   0.0000       1.752142        47.6782 
  84   0.0000       1.757870        47.8341 
  85   0.0000       1.785536        48.5869 
  86   0.0000       1.825845        49.6838 
  87   0.0000       1.839952        50.0676 
  88   0.0000       1.840404        50.0799 
  89   0.0000       1.858802        50.5806 
  90   0.0000       1.878368        51.1130 
  91   0.0000       1.888643        51.3926 
  92   0.0000       1.892734        51.5039 
  93   0.0000       1.894651        51.5561 
  94   0.0000       1.949917        53.0599 
  95   0.0000       1.994905        54.2841 
  96   0.0000       2.041139        55.5422 
  97   0.0000       2.070875        56.3514 
  98   0.0000       2.077547        56.5329 
  99   0.0000       2.131364        57.9974 
 100   0.0000       2.192214        59.6532 
 101   0.0000       2.228242        60.6335 
 102   0.0000       2.245746        61.1098 
 103   0.0000       2.284409        62.1619 
 104   0.0000       2.307721        62.7963 
 105   0.0000       2.353297        64.0365 
 106   0.0000       2.354732        64.0755 
 107   0.0000       2.400781        65.3286 
 108   0.0000       2.436527        66.3013 
 109   0.0000       2.441835        66.4457 
 110   0.0000       2.599051        70.7238 
 111   0.0000       2.623577        71.3912 
 112   0.0000       2.641943        71.8909 
 113   0.0000       2.667573        72.5883 
 114   0.0000       2.731444        74.3264 
 115   0.0000       2.747686        74.7683 
 116   0.0000       2.776666        75.5569 
 117   0.0000       2.822071        76.7924 
 118   0.0000       2.823548        76.8326 
 119   0.0000       2.945349        80.1470 
 120   0.0000       2.975565        80.9692 
 121   0.0000       3.058543        83.2272 
 122   0.0000       3.095154        84.2234 
 123   0.0000       3.111398        84.6654 
 124   0.0000       3.245848        88.3240 
 125   0.0000       3.435223        93.4772 
 126   0.0000       3.475534        94.5741 
 127   0.0000       3.782535       102.9280 

                 SPIN DOWN ORBITALS
  NO   OCC          E(Eh)            E(eV) 
   0   1.0000     -19.298671      -525.1435 
   1   1.0000     -10.359962      -281.9089 
   2   1.0000     -10.302847      -280.3547 
   3   1.0000     -10.302528      -280.3460 
   4   1.0000     -10.299692      -280.2689 
   5   1.0000     -10.298673      -280.2411 
   6   1.0000     -10.290929      -280.0304 
   7   1.0000      -1.112771       -30.2800 
   8   1.0000      -0.964815       -26.2539 
   9   1.0000      -0.863866       -23.5070 
  10   1.0000      -0.838331       -22.8122 
  11   1.0000      -0.722321       -19.6554 
  12   1.0000      -0.696079       -18.9413 
  13   1.0000      -0.622348       -16.9349 
  14   1.0000      -0.571988       -15.5646 
  15   1.0000      -0.567376       -15.4391 
  16   1.0000      -0.531752       -14.4697 
  17   1.0000      -0.527551       -14.3554 
  18   1.0000      -0.517818       -14.0906 
  19   1.0000      -0.463757       -12.6195 
  20   1.0000      -0.450256       -12.2521 
  21   1.0000      -0.438973       -11.9451 
  22   1.0000      -0.418111       -11.3774 
  23   1.0000      -0.349974        -9.5233 
  24   1.0000      -0.309509        -8.4222 
  25   0.0000      -0.069714        -1.8970 
  26   0.0000       0.062216         1.6930 
  27   0.0000       0.080943         2.2026 
  28   0.0000       0.147324         4.0089 
  29   0.0000       0.186350         5.0708 
  30   0.0000       0.202926         5.5219 
  31   0.0000       0.233075         6.3423 
  32   0.0000       0.240665         6.5488 
  33   0.0000       0.249831         6.7982 
  34   0.0000       0.303893         8.2693 
  35   0.0000       0.354739         9.6529 
  36   0.0000       0.373712        10.1692 
  37   0.0000       0.385423        10.4879 
  38   0.0000       0.416243        11.3266 
  39   0.0000       0.445001        12.1091 
  40   0.0000       0.498627        13.5683 
  41   0.0000       0.499884        13.6025 
  42   0.0000       0.524237        14.2652 
  43   0.0000       0.534941        14.5565 
  44   0.0000       0.552963        15.0469 
  45   0.0000       0.560066        15.2402 
  46   0.0000       0.586816        15.9681 
  47   0.0000       0.599903        16.3242 
  48   0.0000       0.630117        17.1464 
  49   0.0000       0.632188        17.2027 
  50   0.0000       0.636320        17.3151 
  51   0.0000       0.677068        18.4239 
  52   0.0000       0.697729        18.9862 
  53   0.0000       0.706540        19.2259 
  54   0.0000       0.732496        19.9322 
  55   0.0000       0.746621        20.3166 
  56   0.0000       0.764927        20.8147 
  57   0.0000       0.783055        21.3080 
  58   0.0000       0.804797        21.8996 
  59   0.0000       0.816473        22.2174 
  60   0.0000       0.831972        22.6391 
  61   0.0000       0.838401        22.8141 
  62   0.0000       0.867287        23.6001 
  63   0.0000       0.896428        24.3930 
  64   0.0000       0.910693        24.7812 
  65   0.0000       0.956713        26.0335 
  66   0.0000       1.015899        27.6440 
  67   0.0000       1.087314        29.5873 
  68   0.0000       1.110092        30.2071 
  69   0.0000       1.158733        31.5307 
  70   0.0000       1.186117        32.2759 
  71   0.0000       1.274073        34.6693 
  72   0.0000       1.311644        35.6916 
  73   0.0000       1.330051        36.1925 
  74   0.0000       1.332965        36.2718 
  75   0.0000       1.362706        37.0811 
  76   0.0000       1.368351        37.2347 
  77   0.0000       1.393096        37.9081 
  78   0.0000       1.448614        39.4188 
  79   0.0000       1.511798        41.1381 
  80   0.0000       1.545953        42.0675 
  81   0.0000       1.565639        42.6032 
  82   0.0000       1.585757        43.1507 
  83   0.0000       1.751876        47.6710 
  84   0.0000       1.756685        47.8018 
  85   0.0000       1.785672        48.5906 
  86   0.0000       1.810440        49.2646 
  87   0.0000       1.837534        50.0018 
  88   0.0000       1.840075        50.0710 
  89   0.0000       1.844371        50.1879 
  90   0.0000       1.862199        50.6730 
  91   0.0000       1.884727        51.2860 
  92   0.0000       1.893078        51.5133 
  93   0.0000       1.895121        51.5689 
  94   0.0000       1.941088        52.8197 
  95   0.0000       1.996550        54.3289 
  96   0.0000       2.041159        55.5428 
  97   0.0000       2.071113        56.3578 
  98   0.0000       2.077742        56.5382 
  99   0.0000       2.134236        58.0755 
 100   0.0000       2.193009        59.6748 
 101   0.0000       2.228670        60.6452 
 102   0.0000       2.244804        61.0842 
 103   0.0000       2.286001        62.2052 
 104   0.0000       2.309353        62.8407 
 105   0.0000       2.358688        64.1832 
 106   0.0000       2.359540        64.2063 
 107   0.0000       2.401349        65.3440 
 108   0.0000       2.437147        66.3181 
 109   0.0000       2.443318        66.4861 
 110   0.0000       2.599715        70.7418 
 111   0.0000       2.639179        71.8157 
 112   0.0000       2.678294        72.8801 
 113   0.0000       2.685534        73.0771 
 114   0.0000       2.738255        74.5117 
 115   0.0000       2.798610        76.1540 
 116   0.0000       2.804092        76.3032 
 117   0.0000       2.822194        76.7958 
 118   0.0000       2.824702        76.8641 
 119   0.0000       2.947590        80.2080 
 120   0.0000       2.976354        80.9907 
 121   0.0000       3.070123        83.5423 
 122   0.0000       3.101575        84.3981 
 123   0.0000       3.118574        84.8607 
 124   0.0000       3.250205        88.4426 
 125   0.0000       3.454841        94.0110 
 126   0.0000       3.495189        95.1089 
 127   0.0000       3.788947       103.1025 

                    ********************************
                    * MULLIKEN POPULATION ANALYSIS *
                    ********************************

--------------------------------------------
MULLIKEN ATOMIC CHARGES AND SPIN POPULATIONS
--------------------------------------------
   0 C :   -0.008243    0.005950
   1 C :   -0.068061    0.036616
   2 C :    0.210904   -0.036835
   3 C :   -0.083165    0.013622
   4 C :   -0.012712    0.001607
   5 C :   -0.033457   -0.008319
   6 H :    0.028788    0.002685
   7 H :    0.025393   -0.000562
   8 H :    0.000887    0.003713
   9 H :    0.026227    0.001916
  10 H :    0.021570    0.000164
  11 O :   -0.203301    0.783456
  12 H :    0.095170   -0.804013
Sum of atomic charges         :   -0.0000000
Sum of atomic spin populations:   -0.0000000

-----------------------------------------------------
MULLIKEN REDUCED ORBITAL CHARGES AND SPIN POPULATIONS
-----------------------------------------------------
CHARGE
  0 C s       :     3.149358  s :     3.149358
      pz      :     0.965181  p :     2.822693
      px      :     0.920399
      py      :     0.937113
      dz2     :     0.002562  d :     0.036192
      dxz     :     0.003857
      dyz     :     0.006788
      dx2y2   :     0.011134
      dxy     :     0.011850
  1 C s       :     3.202052  s :     3.202052
      pz      :     1.064621  p :     2.833107
      px      :     0.879064
      py      :     0.889422
      dz2     :     0.002705  d :     0.032902
      dxz     :     0.003424
      dyz     :     0.005416
      dx2y2   :     0.008695
      dxy     :     0.012661
  2 C s       :     2.952741  s :     2.952741
      pz      :     0.954604  p :     2.761753
      px      :     1.019157
      py      :     0.787991
      dz2     :     0.005517  d :     0.074603
      dxz     :     0.007649
      dyz     :     0.019748
      dx2y2   :     0.024938
      dxy     :     0.016752
  3 C s       :     3.197975  s :     3.197975
      pz      :     1.077393  p :     2.852264
      px      :     0.855605
      py      :     0.919266
      dz2     :     0.002698  d :     0.032926
      dxz     :     0.003528
      dyz     :     0.005271
      dx2y2   :     0.009056
      dxy     :     0.012373
  4 C s       :     3.150778  s :     3.150778
      pz      :     0.964922  p :     2.825782
      px      :     0.915819
      py      :     0.945042
      dz2     :     0.002573  d :     0.036152
      dxz     :     0.003701
      dyz     :     0.006974
      dx2y2   :     0.011394
      dxy     :     0.011510
  5 C s       :     3.143744  s :     3.143744
      pz      :     1.031697  p :     2.855376
      px      :     0.954300
      py      :     0.869379
      dz2     :     0.002559  d :     0.034336
      dxz     :     0.006236
      dyz     :     0.002539
      dx2y2   :     0.012391
      dxy     :     0.010611
  6 H s       :     0.948617  s :     0.948617
      pz      :     0.004410  p :     0.022595
      px      :     0.011720
      py      :     0.006465
  7 H s       :     0.951663  s :     0.951663
      pz      :     0.004866  p :     0.022944
      px      :     0.011976
      py      :     0.006102
  8 H s       :     0.975870  s :     0.975870
      pz      :     0.005031  p :     0.023243
      px      :     0.011742
      py      :     0.006469
  9 H s       :     0.951219  s :     0.951219
      pz      :     0.004434  p :     0.022554
      px      :     0.012200
      py      :     0.005920
 10 H s       :     0.955407  s :     0.955407
      pz      :     0.004862  p :     0.023023
      px      :     0.003046
      py      :     0.015115
 11 O s       :     3.852404  s :     3.852404
      pz      :     1.839672  p :     4.339001
      px      :     1.139260
      py      :     1.360069
      dz2     :     0.001655  d :     0.011897
      dxz     :     0.000053
      dyz     :     0.002917
      dx2y2   :     0.004873
      dxy     :     0.002399
 12 H s       :     0.903227  s :     0.903227
      pz      :     0.000205  p :     0.001603
      px      :     0.001012
      py      :     0.000385

SPIN
  0 C s       :     0.000658  s :     0.000658
      pz      :     0.000834  p :     0.005205
      px      :    -0.000227
      py      :     0.004598
      dz2     :     0.000005  d :     0.000086
      dxz     :    -0.000028
      dyz     :    -0.000070
      dx2y2   :     0.000022
      dxy     :     0.000158
  1 C s       :     0.011829  s :     0.011829
      pz      :    -0.002311  p :     0.024640
      px      :     0.014822
      py      :     0.012129
      dz2     :     0.000034  d :     0.000147
      dxz     :     0.000090
      dyz     :     0.000005
      dx2y2   :    -0.000062
      dxy     :     0.000079
  2 C s       :    -0.010656  s :    -0.010656
      pz      :    -0.000841  p :    -0.034205
      px      :    -0.013961
      py      :    -0.019403
      dz2     :     0.000044  d :     0.008027
      dxz     :     0.000043
      dyz     :    -0.000423
      dx2y2   :    -0.000036
      dxy     :     0.008398
  3 C s       :     0.004056  s :     0.004056
      pz      :    -0.004672  p :     0.009657
      px      :     0.011905
      py      :     0.002425
      dz2     :     0.000031  d :    -0.000091
      dxz     :     0.000088
      dyz     :     0.000008
      dx2y2   :    -0.000227
      dxy     :     0.000008
  4 C s       :    -0.000061  s :    -0.000061
      pz      :     0.000747  p :     0.001642
      px      :     0.000201
      py      :     0.000694
      dz2     :    -0.000001  d :     0.000026
      dxz     :    -0.000025
      dyz     :    -0.000097
      dx2y2   :     0.000005
      dxy     :     0.000144
  5 C s       :    -0.000919  s :    -0.000919
      pz      :    -0.006778  p :    -0.007433
      px      :    -0.000456
      py      :    -0.000199
      dz2     :     0.000018  d :     0.000034
      dxz     :    -0.000008
      dyz     :     0.000011
      dx2y2   :    -0.000028
      dxy     :     0.000040
  6 H s       :     0.002693  s :     0.002693
      pz      :     0.000008  p :    -0.000008
      px      :     0.000010
      py      :    -0.000026
  7 H s       :    -0.000567  s :    -0.000567
      pz      :    -0.000028  p :     0.000005
      px      :     0.000059
      py      :    -0.000026
  8 H s       :     0.004155  s :     0.004155
      pz      :    -0.000051  p :    -0.000442
      px      :    -0.000086
      py      :    -0.000306
  9 H s       :     0.001921  s :     0.001921
      pz      :     0.000008  p :    -0.000005
      px      :     0.000002
      py      :    -0.000015
 10 H s       :     0.000216  s :     0.000216
      pz      :    -0.000047  p :    -0.000053
      px      :    -0.000004
      py      :    -0.000002
 11 O s       :     0.013113  s :     0.013113
      pz      :     0.013553  p :     0.770286
      px      :     0.735514
      py      :     0.021219
      dz2     :     0.000062  d :     0.000056
      dxz     :     0.000008
      dyz     :     0.000003
      dx2y2   :    -0.000106
      dxy     :     0.000089
 12 H s       :    -0.804275  s :    -0.804275
      pz      :    -0.000028  p :     0.000262
      px      :     0.000218
      py      :     0.000072


                     *******************************
                     * LOEWDIN POPULATION ANALYSIS *
                     *******************************

-------------------------------------------
LOEWDIN ATOMIC CHARGES AND SPIN POPULATIONS
-------------------------------------------
   0 C :   -0.012832    0.004621
   1 C :   -0.064227    0.029482
   2 C :    0.026983    0.000484
   3 C :   -0.077468    0.010673
   4 C :   -0.014617   -0.000469
   5 C :   -0.061635   -0.006594
   6 H :    0.037191    0.002002
   7 H :    0.038391   -0.000506
   8 H :    0.028026   -0.004559
   9 H :    0.036508    0.001494
  10 H :    0.032040   -0.000183
  11 O :   -0.064274    0.740872
  12 H :    0.095914   -0.777316

----------------------------------------------------
LOEWDIN REDUCED ORBITAL CHARGES AND SPIN POPULATIONS
----------------------------------------------------
CHARGE
  0 C s       :     2.858305  s :     2.858305
      pz      :     0.949492  p :     3.061947
      px      :     1.053835
      py      :     1.058621
      dz2     :     0.005966  d :     0.092579
      dxz     :     0.007243
      dyz     :     0.013939
      dx2y2   :     0.031725
      dxy     :     0.033706
  1 C s       :     2.857079  s :     2.857079
      pz      :     1.039038  p :     3.120188
      px      :     1.028664
      py      :     1.052485
      dz2     :     0.006418  d :     0.086961
      dxz     :     0.005995
      dyz     :     0.011034
      dx2y2   :     0.027231
      dxy     :     0.036283
  2 C s       :     2.848403  s :     2.848403
      pz      :     0.943289  p :     2.954239
      px      :     1.101645
      py      :     0.909306
      dz2     :     0.012021  d :     0.170375
      dxz     :     0.015259
      dyz     :     0.037155
      dx2y2   :     0.061207
      dxy     :     0.044733
  3 C s       :     2.860301  s :     2.860301
      pz      :     1.049365  p :     3.129909
      px      :     1.018419
      py      :     1.062125
      dz2     :     0.006456  d :     0.087258
      dxz     :     0.006274
      dyz     :     0.010695
      dx2y2   :     0.028039
      dxy     :     0.035794
  4 C s       :     2.858408  s :     2.858408
      pz      :     0.949758  p :     3.063713
      px      :     1.053296
      py      :     1.060659
      dz2     :     0.006008  d :     0.092496
      dxz     :     0.006858
      dyz     :     0.014477
      dx2y2   :     0.032512
      dxy     :     0.032641
  5 C s       :     2.855543  s :     2.855543
      pz      :     1.012088  p :     3.116545
      px      :     1.063578
      py      :     1.040879
      dz2     :     0.006085  d :     0.089547
      dxz     :     0.013095
      dyz     :     0.004137
      dx2y2   :     0.035271
      dxy     :     0.030960
  6 H s       :     0.896460  s :     0.896460
      pz      :     0.013401  p :     0.066349
      px      :     0.033807
      py      :     0.019141
  7 H s       :     0.892539  s :     0.892539
      pz      :     0.015757  p :     0.069070
      px      :     0.034883
      py      :     0.018429
  8 H s       :     0.903065  s :     0.903065
      pz      :     0.016035  p :     0.068909
      px      :     0.033811
      py      :     0.019063
  9 H s       :     0.897128  s :     0.897128
      pz      :     0.013438  p :     0.066364
      px      :     0.035042
      py      :     0.017884
 10 H s       :     0.900309  s :     0.900309
      pz      :     0.015156  p :     0.067651
      px      :     0.010813
      py      :     0.041682
 11 O s       :     3.645931  s :     3.645931
      pz      :     1.832668  p :     4.398645
      px      :     1.133094
      py      :     1.432883
      dz2     :     0.002864  d :     0.019698
      dxz     :     0.000056
      dyz     :     0.004014
      dx2y2   :     0.008657
      dxy     :     0.004106
 12 H s       :     0.900471  s :     0.900471
      pz      :     0.000285  p :     0.003615
      px      :     0.002683
      py      :     0.000646

SPIN
  0 C s       :     0.000974  s :     0.000974
      pz      :     0.000594  p :     0.003454
      px      :    -0.000018
      py      :     0.002878
      dz2     :     0.000020  d :     0.000194
      dxz     :    -0.000072
      dyz     :    -0.000159
      dx2y2   :    -0.000023
      dxy     :     0.000428
  1 C s       :     0.007644  s :     0.007644
      pz      :    -0.001996  p :     0.021714
      px      :     0.011549
      py      :     0.012161
      dz2     :     0.000085  d :     0.000124
      dxz     :     0.000103
      dyz     :     0.000033
      dx2y2   :     0.000015
      dxy     :    -0.000112
  2 C s       :    -0.004771  s :    -0.004771
      pz      :    -0.000285  p :    -0.014635
      px      :     0.001253
      py      :    -0.015603
      dz2     :     0.000322  d :     0.019890
      dxz     :     0.000065
      dyz     :    -0.000599
      dx2y2   :     0.000775
      dxy     :     0.019327
  3 C s       :     0.002174  s :     0.002174
      pz      :    -0.004137  p :     0.008997
      px      :     0.011432
      py      :     0.001701
      dz2     :     0.000056  d :    -0.000498
      dxz     :     0.000103
      dyz     :     0.000025
      dx2y2   :    -0.000581
      dxy     :    -0.000102
  4 C s       :    -0.000184  s :    -0.000184
      pz      :     0.000483  p :    -0.000410
      px      :     0.000043
      py      :    -0.000937
      dz2     :    -0.000000  d :     0.000125
      dxz     :    -0.000065
      dyz     :    -0.000210
      dx2y2   :     0.000012
      dxy     :     0.000388
  5 C s       :    -0.000314  s :    -0.000314
      pz      :    -0.006131  p :    -0.006365
      px      :    -0.000042
      py      :    -0.000192
      dz2     :     0.000018  d :     0.000086
      dxz     :    -0.000017
      dyz     :     0.000017
      dx2y2   :    -0.000058
      dxy     :     0.000126
  6 H s       :     0.001927  s :     0.001927
      pz      :     0.000023  p :     0.000074
      px      :    -0.000009
      py      :     0.000060
  7 H s       :    -0.000810  s :    -0.000810
      pz      :    -0.000110  p :     0.000304
      px      :     0.000502
      py      :    -0.000088
  8 H s       :    -0.003234  s :    -0.003234
      pz      :    -0.000170  p :    -0.001325
      px      :    -0.000294
      py      :    -0.000861
  9 H s       :     0.001544  s :     0.001544
      pz      :     0.000019  p :    -0.000050
      px      :    -0.000021
      py      :    -0.000048
 10 H s       :     0.000038  s :     0.000038
      pz      :    -0.000174  p :    -0.000221
      px      :    -0.000021
      py      :    -0.000026
 11 O s       :     0.002885  s :     0.002885
      pz      :     0.012675  p :     0.738322
      px      :     0.710193
      py      :     0.015453
      dz2     :    -0.000127  d :    -0.000335
      dxz     :     0.000008
      dyz     :     0.000004
      dx2y2   :    -0.000071
      dxy     :    -0.000148
 12 H s       :    -0.778772  s :    -0.778772
      pz      :    -0.000028  p :     0.001456
      px      :     0.001142
      py      :     0.000341


                      *****************************
                      * MAYER POPULATION ANALYSIS *
                      *****************************

  NA   - Mulliken gross atomic population
  ZA   - Total nuclear charge
  QA   - Mulliken gross atomic charge
  VA   - Mayer's total valence
  BVA  - Mayer's bonded valence
  FA   - Mayer's free valence

  ATOM       NA         ZA         QA         VA         BVA        FA
  0 C      6.0082     6.0000    -0.0082     3.8808     3.8808     0.0000
  1 C      6.0681     6.0000    -0.0681     3.8907     3.8891     0.0016
  2 C      5.7891     6.0000     0.2109     3.9264     3.9245     0.0020
  3 C      6.0832     6.0000    -0.0832     3.8840     3.8828     0.0012
  4 C      6.0127     6.0000    -0.0127     3.8936     3.8936     0.0000
  5 C      6.0335     6.0000    -0.0335     3.8552     3.8551     0.0000
  6 H      0.9712     1.0000     0.0288     0.9850     0.9850     0.0000
  7 H      0.9746     1.0000     0.0254     0.9957     0.9957     0.0000
  8 H      0.9991     1.0000     0.0009     1.0000     0.9998     0.0001
  9 H      0.9738     1.0000     0.0262     0.9846     0.9846     0.0000
 10 H      0.9784     1.0000     0.0216     0.9853     0.9853     0.0000
 11 O      8.2033     8.0000    -0.2033     2.1740     1.6061     0.5678
 12 H      0.9048     1.0000     0.0952     0.9961     0.3421     0.6541

  Mayer bond orders larger than 0.1
B(  0-C ,  1-C ) :   1.4066 B(  0-C ,  5-C ) :   1.3896 B(  0-C ,  6-H ) :   0.9858 
B(  1-C ,  2-C ) :   1.3391 B(  1-C ,  7-H ) :   0.9922 B(  2-C ,  3-C ) :   1.3323 
B(  2-C , 11-O ) :   1.1602 B(  3-C ,  4-C ) :   1.3980 B(  3-C ,  8-H ) :   0.9884 
B(  4-C ,  5-C ) :   1.4027 B(  4-C ,  9-H ) :   0.9847 B(  5-C , 10-H ) :   0.9916 
B( 11-O , 12-H ) :   0.2989 

-------
TIMINGS
-------

Total SCF time: 0 days 0 hours 3 min 30 sec 

Total time                  ....     210.164 sec
Sum of individual times     ....     209.950 sec  ( 99.9%)

Fock matrix formation       ....     153.988 sec  ( 73.3%)
  Split-RI-J                ....      12.187 sec  (  7.9% of F)
  Chain of spheres X        ....     128.127 sec  ( 83.2% of F)
  COS-X 1 center corr.      ....       0.000 sec  (  0.0% of F)
  XC integration            ....      13.605 sec  (  8.8% of F)
    Basis function eval.    ....       5.080 sec  ( 37.3% of XC)
    Density eval.           ....       2.059 sec  ( 15.1% of XC)
    XC-Functional eval.     ....       2.076 sec  ( 15.3% of XC)
    XC-Potential eval.      ....       4.228 sec  ( 31.1% of XC)
Diagonalization             ....       0.206 sec  (  0.1%)
Density matrix formation    ....       0.012 sec  (  0.0%)
Population analysis         ....       0.009 sec  (  0.0%)
Initial guess               ....       0.518 sec  (  0.2%)
Orbital Transformation      ....       0.000 sec  (  0.0%)
Orbital Orthonormalization  ....       0.000 sec  (  0.0%)
DIIS solution               ....       0.053 sec  (  0.0%)
Grid generation             ....       2.293 sec  (  1.1%)
SCF Stability Analysis      ....      52.871 sec  ( 25.2%)
------------------------------------------------------------------------------
                        ORCA TD-DFT/TDA CALCULATION
------------------------------------------------------------------------------

Input orbitals are from        ... /scratch/ch1tk/orca.15388/wB97XD3_def2-SVP_toluene_S0_TDA6S_2-00.gbw
CI-vector output               ... /scratch/ch1tk/orca.15388/wB97XD3_def2-SVP_toluene_S0_TDA6S_2-00.cis
Tamm-Dancoff approximation     ... operative
CIS-Integral strategy          ... AO-integrals
Integral handling              ... AO integral Direct
Max. core memory used          ... 512 MB
Reference state                ... UHF
Number of operators            ... 2
Orbital ranges used for CIS calculation:
 Operator 0:  Orbitals   7... 24  to  25...127
 Operator 1:  Orbitals   7... 24  to  25...127
XAS localization array:
 Operator 0:  Orbitals  -1... -1
 Operator 1:  Orbitals  -1... -1
-------------------
XC-INTEGRATION GRID
-------------------

General Integration Accuracy     IntAcc      ...  3.670
Radial Grid Type                 RadialGrid  ... Gauss-Chebyshev
Angular Grid (max. acc.)         AngularGrid ... Lebedev-50
Angular grid pruning method      GridPruning ... 3 (G Style)
Weight generation scheme         WeightScheme... Becke
Basis function cutoff            BFCut       ...    1.0000e-10
Integration weight cutoff        WCut        ...    1.0000e-14
Grids for H and He will be reduced by one unit

# of grid points (after initial pruning)     ...   7582 (   0.0 sec)
# of grid points (after weights+screening)   ...   7154 (   0.0 sec)
nearest neighbour list constructed           ...    0.0 sec
Grid point re-assignment to atoms done       ...    0.0 sec
Grid point division into batches done        ...    0.0 sec
Reduced shell lists constructed in    0.1 sec

Total number of grid points                  ...     7154
Total number of batches                      ...      117
Average number of points per batch           ...       61
Average number of grid points per atom       ...      550
Average number of shells per batch           ...    46.31 (77.19%)
Average number of basis functions per batch  ...    98.84 (77.22%)
Average number of large shells per batch     ...    37.71 (81.43%)
Average number of large basis fcns per batch ...    79.53 (80.46%)
Maximum spatial batch extension              ...  17.81, 15.26, 27.71 au
Average spatial batch extension              ...   4.55,  4.35,  7.11 au

---------------------
COSX-INTEGRATION GRID
---------------------

General Integration Accuracy     IntAcc      ...  2.670
Radial Grid Type                 RadialGrid  ... Gauss-Chebyshev
Angular Grid (max. acc.)         AngularGrid ... Lebedev-50
Angular grid pruning method      GridPruning ... 3 (G Style)
Weight generation scheme         WeightScheme... Becke
Basis function cutoff            BFCut       ...    1.0000e-10
Integration weight cutoff        WCut        ...    1.0000e-14
Grids for H and He will be reduced by one unit

# of grid points (after initial pruning)     ...   4338 (   0.0 sec)
# of grid points (after weights+screening)   ...   4111 (   0.0 sec)
nearest neighbour list constructed           ...    0.0 sec
Grid point re-assignment to atoms done       ...    0.0 sec
Grid point division into batches done        ...    0.0 sec
Reduced shell lists constructed in    0.1 sec

Total number of grid points                  ...     4111
Total number of batches                      ...       72
Average number of points per batch           ...       57
Average number of grid points per atom       ...      316
Average number of shells per batch           ...    47.08 (78.47%)
Average number of basis functions per batch  ...   101.19 (79.06%)
Average number of large shells per batch     ...    38.63 (82.05%)
Average number of large basis fcns per batch ...    82.08 (81.12%)
Maximum spatial batch extension              ...  13.79, 12.25, 29.42 au
Average spatial batch extension              ...   4.79,  4.53,  7.47 au


---------------
TD-DFT XC SETUP
---------------

DFT calculation                         ... on
Name of the grid file                   ... /scratch/ch1tk/orca.15388/wB97XD3_def2-SVP_toluene_S0_TDA6S_2-00.grid_cis.tmp
Exchange functional (SCF)               ... WB97X-D3
Exchange functional (TD-DFT)            ... WB97X-D3
Correlation functional (SCF)            ... WB97X-D3
Correlation functional (TD-DFT)         ... WB97X-D3
Hybrid DFT                              ... on
   Exchange mixing (SCF)                ...  0.196
   Exchange mixing (TD-DFT)             ...  0.196
   GGA exch. scaling(SCF)               ...  0.000
   GGA exch. scaling (TD-DFT)           ...  0.000
   GGA corr. scaling (SCF)              ...  1.000
   GGA corr. scaling (TD-DFT)           ...  1.000
Range-Separated Exchange                ... on
   Range Range separation parameter mu  .... 0.250
   Max. amount of RS exchange (SCF)     ...  0.804
   Max. amount of RS exchange (TD-DFT)  ...  0.804

Building densities             ... done
Calculating rho(r) on the grid ... done
Building xc-kernel on the grid ... done
                    *** TD-DFT CALCULATION INITIALIZED ***


------------------------
DAVIDSON-DIAGONALIZATION
------------------------

Dimension of the eigenvalue problem            ...   3708
Number of roots to be determined               ...      6
Maximum size of the expansion space            ...     60
Convergence tolerance for the residual         ...    1.000e-06
Convergence tolerance for the energies         ...    1.000e-06
Orthogonality tolerance                        ...    1.000e-14
Level Shift                                    ...    0.000e+00
Constructing the preconditioner                ... o.k.
Building the initial guess                     ... o.k.
Number of trial vectors determined             ...     60


                       ****Iteration    0****

   Memory handling for direct AO based CIS:
   Memory per vector needed      ...     1 MB
   Memory needed                 ...    23 MB
   Memory available              ...   512 MB
   Number of vectors per batch   ...   391
   Number of batches             ...     1
   Time for densities:     0.021
   Time for RI-J (Direct):     4.498
   Time for K (COSX):     3.784
   Time for XC-Integration:     2.390
   Time for Sigma-Completion:     0.108
   Size of expansion space: 18
   Lowest Energy          :     0.014067018946
   Maximum Energy change  :     0.169118886130 (vector 5)
   Maximum residual norm  :     0.012963530816

                       ****Iteration    1****
   Time for densities:     0.007
   Time for RI-J (Direct):     1.564
   Time for K (COSX):     3.085
   Time for XC-Integration:     0.829
   Time for Sigma-Completion:     0.037
   Size of expansion space: 24
   Lowest Energy          :     0.005786932682
   Maximum Energy change  :     0.017965585198 (vector 3)
   Maximum residual norm  :     0.002957923874

                       ****Iteration    2****
   Time for densities:     0.007
   Time for RI-J (Direct):     1.580
   Time for K (COSX):     3.145
   Time for XC-Integration:     0.845
   Time for Sigma-Completion:     0.037
   Size of expansion space: 30
   Lowest Energy          :     0.005080065105
   Maximum Energy change  :     0.006231315412 (vector 5)
   Maximum residual norm  :     0.003587528049

                       ****Iteration    3****
   Time for densities:     0.007
   Time for RI-J (Direct):     1.582
   Time for K (COSX):     3.163
   Time for XC-Integration:     0.852
   Time for Sigma-Completion:     0.036
   Size of expansion space: 36
   Lowest Energy          :     0.005063456977
   Maximum Energy change  :     0.003359336953 (vector 4)
   Maximum residual norm  :     0.000233912478

                       ****Iteration    4****
   Time for densities:     0.007
   Time for RI-J (Direct):     1.602
   Time for K (COSX):     3.152
   Time for XC-Integration:     0.850
   Time for Sigma-Completion:     0.037
   Size of expansion space: 42
   Lowest Energy          :     0.005063234751
   Maximum Energy change  :     0.000503939961 (vector 3)
   Maximum residual norm  :     0.000074431338

                       ****Iteration    5****
   Time for densities:     0.007
   Time for RI-J (Direct):     1.578
   Time for K (COSX):     3.126
   Time for XC-Integration:     0.804
   Time for Sigma-Completion:     0.035
   Size of expansion space: 48
   Lowest Energy          :     0.005063230809
   Maximum Energy change  :     0.000111879246 (vector 3)
   Maximum residual norm  :     0.000009811556

                       ****Iteration    6****
   Time for densities:     0.007
   Time for RI-J (Direct):     1.440
   Time for K (COSX):     2.986
   Time for XC-Integration:     0.820
   Time for Sigma-Completion:     0.036
   Size of expansion space: 54
   Lowest Energy          :     0.005063230749
   Maximum Energy change  :     0.000010880854 (vector 3)
   Maximum residual norm  :     0.000001007107

                       ****Iteration    7****
   Time for densities:     0.007
   Time for RI-J (Direct):     1.552
   Time for K (COSX):     2.757
   Time for XC-Integration:     0.781
   Time for Sigma-Completion:     0.034
   Size of expansion space: 60
   Lowest Energy          :     0.005063230748
   Maximum Energy change  :     0.000001287771 (vector 3)
   Maximum residual norm  :     0.000000080151

      *** CONVERGENCE OF RESIDUAL NORM REACHED ***

Storing the converged CI vectors               ... /scratch/ch1tk/orca.15388/wB97XD3_def2-SVP_toluene_S0_TDA6S_2-00.cis1

                 *** DAVIDSON DONE ***

Total time for solving the CIS problem:    49.386sec

-------------------------
TD-DFT/TDA EXCITED STATES
-------------------------

the weight of the individual excitations are printed if larger than 0.01

STATE  1:  E=   0.005063 au      0.138 eV     1111.3 cm**-1
    18b ->  25b  :     0.032406 (c= -0.18001789)
    21b ->  25b  :     0.153346 (c=  0.39159457)
    24b ->  25b  :     0.809038 (c=  0.89946552)

STATE  2:  E=   0.113661 au      3.093 eV    24945.7 cm**-1
    23b ->  25b  :     0.998105 (c= -0.99905193)

STATE  3:  E=   0.127563 au      3.471 eV    27996.8 cm**-1
    21a ->  25a  :     0.058708 (c=  0.24229800)
    23a ->  25a  :     0.015927 (c= -0.12620237)
    24a ->  25a  :     0.902602 (c=  0.95005375)

STATE  4:  E=   0.137023 au      3.729 eV    30073.0 cm**-1
    19a ->  25a  :     0.025344 (c=  0.15919800)
    22a ->  25a  :     0.032921 (c=  0.18144255)
    15b ->  25b  :     0.041606 (c=  0.20397646)
    16b ->  25b  :     0.058939 (c=  0.24277449)
    20b ->  25b  :     0.015944 (c= -0.12626804)
    22b ->  25b  :     0.770957 (c= -0.87804135)

STATE  5:  E=   0.147203 au      4.006 eV    32307.3 cm**-1
    24a ->  25a  :     0.015221 (c=  0.12337275)
    18b ->  25b  :     0.333701 (c= -0.57766847)
    21b ->  25b  :     0.474245 (c=  0.68865460)
    24b ->  25b  :     0.172179 (c= -0.41494483)

STATE  6:  E=   0.154926 au      4.216 eV    34002.3 cm**-1
    21a ->  33a  :     0.010080 (c=  0.10039864)
    23a ->  26a  :     0.149643 (c= -0.38683709)
    24a ->  27a  :     0.312394 (c= -0.55892182)
    23b ->  26b  :     0.151076 (c=  0.38868531)
    24b ->  27b  :     0.332578 (c=  0.57669590)


-----------------------------
TD-DFT/TDA-EXCITATION SPECTRA
-----------------------------

Center of mass = (  0.0024,  0.0484,  0.0000)
Calculating the Dipole integrals                  ... done
Transforming integrals                            ... done
Calculating the Linear Momentum integrals         ... done
Transforming integrals                            ... done
Calculating angular momentum integrals            ... done
Transforming integrals                            ... done

-----------------------------------------------------------------------------
         ABSORPTION SPECTRUM VIA TRANSITION ELECTRIC DIPOLE MOMENTS
-----------------------------------------------------------------------------
State   Energy  Wavelength   fosc         T2         TX        TY        TZ  
        (cm-1)    (nm)                  (au**2)     (au)      (au)      (au) 
-----------------------------------------------------------------------------
   1    1111.3   8998.9   0.000000000   0.00000   0.00001   0.00003  -0.00007
   2   24945.7    400.9   0.000046639   0.00062   0.00000  -0.00000  -0.02481
   3   27996.8    357.2   0.000000858   0.00001   0.00001   0.00001   0.00318
   4   30073.0    332.5   0.082924760   0.90779   0.69524   0.65148  -0.00000
   5   32307.3    309.5   0.000002914   0.00003   0.00003   0.00001  -0.00545
   6   34002.3    294.1   0.000166363   0.00161  -0.00347  -0.03998   0.00000

-----------------------------------------------------------------------------
         ABSORPTION SPECTRUM VIA TRANSITION VELOCITY DIPOLE MOMENTS
-----------------------------------------------------------------------------
State   Energy  Wavelength   fosc         P2         PX        PY        PZ  
        (cm-1)    (nm)                  (au**2)     (au)      (au)      (au) 
-----------------------------------------------------------------------------
   1    1111.3   8998.9   0.009877138   0.00008   0.00000   0.00000   0.00866
   2   24945.7    400.9   0.000748789   0.00013   0.00000   0.00000  -0.01130
   3   27996.8    357.2   0.000997061   0.00019   0.00000   0.00000   0.01381
   4   30073.0    332.5   0.044475280   0.00914  -0.02022  -0.09345  -0.00000
   5   32307.3    309.5   0.000390268   0.00009  -0.00000  -0.00001   0.00928
   6   34002.3    294.1   0.000008340   0.00000   0.00064  -0.00124  -0.00000

-------------------------------------------------------------------
                             CD SPECTRUM
-------------------------------------------------------------------
State   Energy Wavelength       R         MX        MY        MZ   
        (cm-1)   (nm)       (1e40*cgs)   (au)      (au)      (au)  
-------------------------------------------------------------------
   1    1111.3   8998.9      0.00439  -0.06964   0.33262  -0.00000
   2   24945.7    400.9     -0.00009   0.01845   0.01232   0.00001
   3   27996.8    357.2     -0.00043  -0.07963  -0.00450  -0.00001
   4   30073.0    332.5     -0.00289  -0.00000  -0.00001  -0.39660
   5   32307.3    309.5      0.00019  -0.04288   0.20117  -0.00001
   6   34002.3    294.1      0.00020   0.00000  -0.00001   0.00062

Total run time:       49.962 sec

           *** ORCA-CIS/TD-DFT FINISHED WITHOUT ERROR ***

-----------------------
CIS/TD-DFT TOTAL ENERGY
-----------------------

    E(SCF)  =   -306.987707895 Eh
    DE(CIS) =      0.005063231 Eh (Root  1)
    ----------------------------- ---------
    E(tot)  =   -306.982644665 Eh



-------------------------------------------------------------------------------
                          DFT DISPERSION CORRECTION                            
                                                                               
                              DFTD3 V3.1  Rev 1                                
                              USING zero damping                               
-------------------------------------------------------------------------------
The omegaB97X-D3 functional is recognized. Fit by Chai et al.
Active option DFTDOPT                   ...         3   

molecular C6(AA) [au] = 2037.935592 


            DFT-D V3
 parameters
 s6 scaling factor         :     1.0000 
 rs6 scaling factor        :     1.2810 
 s8 scaling factor         :     1.0000 
 rs8 scaling factor        :     1.0940 
 Damping factor alpha6     :    14.0000 
 Damping factor alpha8     :    16.0000 
 ad hoc parameters k1-k3   :    16.0000     1.3333    -4.0000 

 Edisp/kcal,au: -1.917385703694  -0.003055548288 
 E6   /kcal   :  -0.798405652 
 E8   /kcal   :  -1.118980052 
 % E8         :  58.359674293 

-------------------------   ----------------
Dispersion correction           -0.003055548
-------------------------   ----------------


-------------------------   --------------------
FINAL SINGLE POINT ENERGY      -306.990763443645
-------------------------   --------------------


                            ***************************************
                            *     ORCA property calculations      *
                            ***************************************

                                    ---------------------
                                    Active property flags
                                    ---------------------
   (+) Dipole Moment


------------------------------------------------------------------------------
                       ORCA ELECTRIC PROPERTIES CALCULATION
------------------------------------------------------------------------------

Dipole Moment Calculation                       ... on
Quadrupole Moment Calculation                   ... off
Polarizability Calculation                      ... off
GBWName                                         ... /scratch/ch1tk/orca.15388/wB97XD3_def2-SVP_toluene_S0_TDA6S_2-00.gbw
Electron density file                           ... /scratch/ch1tk/orca.15388/wB97XD3_def2-SVP_toluene_S0_TDA6S_2-00.scfp.tmp
The origin for moment calculation is the CENTER OF MASS  = ( 0.002426,  0.048411  0.000000)

-------------
DIPOLE MOMENT
-------------
                                X             Y             Z
Electronic contribution:     -1.36743       1.39382       0.00000
Nuclear contribution   :      1.68760      -1.66020       0.00000
                        -----------------------------------------
Total Dipole Moment    :      0.32017      -0.26638       0.00000
                        -----------------------------------------
Magnitude (a.u.)       :      0.41649
Magnitude (Debye)      :      1.05863


Timings for individual modules:

Sum of individual times         ...      260.455 sec (=   4.341 min)
GTO integral calculation        ...        0.262 sec (=   0.004 min)   0.1 %
SCF iterations                  ...      210.198 sec (=   3.503 min)  80.7 %
CIS module                      ...       49.995 sec (=   0.833 min)  19.2 %
                             ****ORCA TERMINATED NORMALLY****
TOTAL RUN TIME: 0 days 0 hours 4 minutes 20 seconds 703 msec
