
                                 *****************
                                 * O   R   C   A *
                                 *****************

           --- An Ab Initio, DFT and Semiempirical electronic structure package ---

                  #######################################################
                  #                        -***-                        #
                  #  Department of molecular theory and spectroscopy    #
                  #              Directorship: Frank Neese              #
                  # Max Planck Institute for Chemical Energy Conversion #
                  #                  D-45470 Muelheim/Ruhr              #
                  #                       Germany                       #
                  #                                                     #
                  #                  All rights reserved                #
                  #                        -***-                        #
                  #######################################################


                         Program Version 4.0.1.2 - RELEASE -


 With contributions from (in alphabetic order):
   Daniel Aravena         : Magnetic Properties
   Michael Atanasov       : Ab Initio Ligand Field Theory
   Ute Becker             : Parallelization
   Martin Brehm           : Molecular dynamics
   Dmytro Bykov           : SCF Hessian
   Vijay G. Chilkuri      : MRCI spin determinant printing
   Dipayan Datta          : RHF DLPNO-CCSD density
   Achintya Kumar Dutta   : EOM-CC, STEOM-CC
   Dmitry Ganyushin       : Spin-Orbit,Spin-Spin,Magnetic field MRCI
   Yang Guo               : DLPNO-NEVPT2, CIM, IAO-localization
   Andreas Hansen         : Spin unrestricted coupled pair/coupled cluster methods
   Lee Huntington         : MR-EOM, pCC
   Robert Izsak           : Overlap fitted RIJCOSX, COSX-SCS-MP3, EOM
   Christian Kollmar      : KDIIS, OOCD, Brueckner-CCSD(T), CCSD density
   Simone Kossmann        : Meta GGA functionals, TD-DFT gradient, OOMP2, MP2 Hessian
   Martin Krupicka        : AUTO-CI
   Dagmar Lenk            : GEPOL surface
   Dimitrios Liakos       : Extrapolation schemes; parallel MDCI
   Dimitrios Manganas     : ROCIS; embedding schemes
   Dimitrios Pantazis     : SARC Basis sets
   Taras Petrenko         : DFT Hessian,TD-DFT gradient, ASA, ECA, R-Raman, ABS, FL, XAS/XES, NRVS
   Peter Pinski           : DLPNO-MP2
   Christoph Reimann      : Effective Core Potentials
   Marius Retegan         : Local ZFS, SOC
   Christoph Riplinger    : Optimizer, TS searches, QM/MM, DLPNO-CCSD(T), (RO)-DLPNO pert. Triples
   Tobias Risthaus        : Range-separated hybrids, TD-DFT gradient, RPA, STAB
   Michael Roemelt        : Restricted open shell CIS
   Masaaki Saitow         : Open-shell DLPNO
   Barbara Sandhoefer     : DKH picture change effects
   Kantharuban Sivalingam : CASSCF convergence, NEVPT2, FIC-MRCI
   Georgi Stoychev        : AutoAux
   Boris Wezisla          : Elementary symmetry handling
   Frank Wennmohs         : Technical directorship


 We gratefully acknowledge several colleagues who have allowed us to
 interface, adapt or use parts of their codes:
   Stefan Grimme, W. Hujo, H. Kruse,             : VdW corrections, initial TS optimization,
                  C. Bannwarth                     DFT functionals, gCP, sTDA/sTD-DF
   Ed Valeev                                     : LibInt (2-el integral package), F12 methods
   Garnet Chan, S. Sharma, J. Yang, R. Olivares  : DMRG
   Ulf Ekstrom                                   : XCFun DFT Library
   Mihaly Kallay                                 : mrcc  (arbitrary order and MRCC methods)
   Andreas Klamt, Michael Diedenhofen            : otool_cosmo (COSMO solvation model)
   Jiri Pittner, Ondrej Demel                    : Mk-CCSD
   Frank Weinhold                                : gennbo (NPA and NBO analysis)
   Christopher J. Cramer and Donald G. Truhlar   : smd solvation model


 Your calculation uses the libint2 library for the computation of 2-el integrals
 For citations please refer to: http://libint.valeyev.net

 This ORCA versions uses:
   CBLAS   interface :  Fast vector & matrix operations
   LAPACKE interface :  Fast linear algebra routines
   SCALAPACK package :  Parallel linear algebra routines


Your calculation utilizes the atom-pairwise dispersion correction
with the zero-damping scheme (D30)
Cite in your paper:
S.Grimme, J.Antony, S.Ehrlich and H.Krieg, J.Chem.Phys., 132, (2010), 154104 
   

XCFun DFT library Copyright 2009-2010 Ulf Ekstrom and contributors.
See http://admol.org/xcfun for more information. This is free soft-
ware; see the source code for copying conditions. There is ABSOLUTELY
NO WARRANTY; not even for MERCHANTABILITY or FITNESS FOR A PARTICULAR
PURPOSE. For details see the documentation. Scientific users of this 
library should cite U. Ekstrom, L. Visscher, R. Bast, A. J. Thorvald-
sen and K. Ruud; J.Chem.Theor.Comp. 2010, DOI: 10.1021/ct100117s
XCFun Version 0.99 
Your calculation utilizes the basis: def2-SVP
   F. Weigend and R. Ahlrichs, Phys. Chem. Chem. Phys. 7, 3297 (2005).

Your calculation utilizes the auxiliary basis: def2/JK
   H-Ba, Hf-Rn: F. Weigend, J. Comput. Chem. 29, 167 (2008).

WARNING: Overwriting auxiliary coulomb basis with /JK basis!
================================================================================
                                        WARNINGS
                       Please study these warnings very carefully!
================================================================================

Warning: TCutStore was < 0. Adjusted to Thresh (uncritical)
INFO   : Checking CIS options ...

WARNING: CIS/ROCIS methods need fully converged wavefunctions
  ===> : Setting SCFConvForced true
         You can overwrite this default with %scf ConvForced false 


INFO   : the flag for use of LIBINT has been found!

================================================================================
                                       INPUT FILE
================================================================================
NAME = /scratch/ch1tk/orca.15422/wB97XD3_def2-SVP_toluene_S0_TDA6S_2-40.inp
|  1> ! UKS wB97X-D3 def2-SVP RIJCOSX def2/JK SlowConv
|  2>  
|  3> 
|  4> %scf
|  5> 	MaxIter		500
|  6> 	STABPerform	True
|  7> end
|  8> 
|  9> %tddft
| 10> 	NRoots 6
| 11> end
| 12> 
| 13> * xyz 0 1
| 14>  C                 -1.18578599   -1.17301779    0.00000000
| 15>  C                 -1.22528521    0.21672485    0.00000000
| 16>  C                 -0.03021307    0.94488843    0.00000000
| 17>  C                  1.19387265    0.26897053    0.00000000
| 18>  C                  1.21998389   -1.12396818    0.00000000
| 19>  C                  0.03366349   -1.85245673    0.00000000
| 20>  H                 -2.12142076   -1.73821028    0.00000000
| 21>  H                 -2.17044776    0.76362561    0.00000000
| 22>  H                  2.12866956    0.83920121    0.00000000
| 23>  H                  2.18175171   -1.64285600    0.00000000
| 24>  H                  0.05704252   -2.94432740    0.00000000
| 25>  O                 -0.11105943    2.29589847    0.00000000
| 26>  H                  2.10143612    3.22587881    0.00000000
| 27> end
| 28> 
| 29>                          ****END OF INPUT****
================================================================================

                       ****************************
                       * Single Point Calculation *
                       ****************************

---------------------------------
CARTESIAN COORDINATES (ANGSTROEM)
---------------------------------
  C     -1.185786   -1.173018    0.000000
  C     -1.225285    0.216725    0.000000
  C     -0.030213    0.944888    0.000000
  C      1.193873    0.268971    0.000000
  C      1.219984   -1.123968    0.000000
  C      0.033663   -1.852457    0.000000
  H     -2.121421   -1.738210    0.000000
  H     -2.170448    0.763626    0.000000
  H      2.128670    0.839201    0.000000
  H      2.181752   -1.642856    0.000000
  H      0.057043   -2.944327    0.000000
  O     -0.111059    2.295898    0.000000
  H      2.101436    3.225879    0.000000

----------------------------
CARTESIAN COORDINATES (A.U.)
----------------------------
  NO LB      ZA    FRAG     MASS         X           Y           Z
   0 C     6.0000    0    12.011   -2.240811   -2.216682    0.000000
   1 C     6.0000    0    12.011   -2.315453    0.409551    0.000000
   2 C     6.0000    0    12.011   -0.057094    1.785580    0.000000
   3 C     6.0000    0    12.011    2.256092    0.508281    0.000000
   4 C     6.0000    0    12.011    2.305435   -2.123992    0.000000
   5 C     6.0000    0    12.011    0.063615   -3.500636    0.000000
   6 H     1.0000    0     1.008   -4.008904   -3.284741    0.000000
   7 H     1.0000    0     1.008   -4.101552    1.443043    0.000000
   8 H     1.0000    0     1.008    4.022602    1.585860    0.000000
   9 H     1.0000    0     1.008    4.122913   -3.104548    0.000000
  10 H     1.0000    0     1.008    0.107795   -5.563972    0.000000
  11 O     8.0000    0    15.999   -0.209872    4.338619    0.000000
  12 H     1.0000    0     1.008    3.971139    6.096027    0.000000

--------------------------------
INTERNAL COORDINATES (ANGSTROEM)
--------------------------------
 C      0   0   0     0.000000000000     0.00000000     0.00000000
 C      1   0   0     1.390303849457     0.00000000     0.00000000
 C      2   1   0     1.399435464408   119.72614521     0.00000000
 C      3   2   1     1.398302848974   119.73915203     0.00000000
 C      4   3   2     1.393183421761   119.98059071     0.00000000
 C      5   4   3     1.392139238344   120.47909682     0.00000000
 H      1   2   3     1.093094219903   119.50705551   180.00000085
 H      2   1   3     1.091985662548   121.68304388   180.00000000
 H      4   3   2     1.094992370457   119.70992277   180.00000000
 H      5   4   3     1.092813757843   119.42141969   180.00000000
 H      6   5   4     1.092120936092   120.32638097   180.00000085
 O      3   2   1     1.353426858794   117.92958877   180.00000000
 H      9   4   3     2.386832969983   120.72964372     0.00000000

---------------------------
INTERNAL COORDINATES (A.U.)
---------------------------
 C      0   0   0     0.000000000000     0.00000000     0.00000000
 C      1   0   0     2.627293518410     0.00000000     0.00000000
 C      2   1   0     2.644549769828   119.72614521     0.00000000
 C      3   2   1     2.642409436842   119.73915203     0.00000000
 C      4   3   2     2.632735121448   119.98059071     0.00000000
 C      5   4   3     2.630761900756   120.47909682     0.00000000
 H      1   2   3     2.065648714189   119.50705551   180.00000085
 H      2   1   3     2.063553844385   121.68304388   180.00000000
 H      4   3   2     2.069235698897   119.70992277   180.00000000
 H      5   4   3     2.065118717705   119.42141969   180.00000000
 H      6   5   4     2.063809474335   120.32638097   180.00000085
 O      3   2   1     2.557606105415   117.92958877   180.00000000
 H      9   4   3     4.510460640681   120.72964372     0.00000000

---------------------
BASIS SET INFORMATION
---------------------
There are 3 groups of distinct atoms

 Group   1 Type C   : 7s4p1d contracted to 3s2p1d pattern {511/31/1}
 Group   2 Type H   : 4s1p contracted to 2s1p pattern {31/1}
 Group   3 Type O   : 7s4p1d contracted to 3s2p1d pattern {511/31/1}

Atom   0C    basis set group =>   1
Atom   1C    basis set group =>   1
Atom   2C    basis set group =>   1
Atom   3C    basis set group =>   1
Atom   4C    basis set group =>   1
Atom   5C    basis set group =>   1
Atom   6H    basis set group =>   2
Atom   7H    basis set group =>   2
Atom   8H    basis set group =>   2
Atom   9H    basis set group =>   2
Atom  10H    basis set group =>   2
Atom  11O    basis set group =>   3
Atom  12H    basis set group =>   2
-------------------------------
AUXILIARY BASIS SET INFORMATION
-------------------------------
There are 3 groups of distinct atoms

 Group   1 Type C   : 14s10p6d2f1g contracted to 10s8p5d1f1g pattern {5111111111/31111111/21111/2/1}
 Group   2 Type H   : 4s2p2d contracted to 2s2p2d pattern {31/11/11}
 Group   3 Type O   : 14s10p6d2f1g contracted to 10s8p4d2f1g pattern {5111111111/31111111/3111/11/1}

Atom   0C    basis set group =>   1
Atom   1C    basis set group =>   1
Atom   2C    basis set group =>   1
Atom   3C    basis set group =>   1
Atom   4C    basis set group =>   1
Atom   5C    basis set group =>   1
Atom   6H    basis set group =>   2
Atom   7H    basis set group =>   2
Atom   8H    basis set group =>   2
Atom   9H    basis set group =>   2
Atom  10H    basis set group =>   2
Atom  11O    basis set group =>   3
Atom  12H    basis set group =>   2
------------------------------------------------------------------------------
                           ORCA GTO INTEGRAL CALCULATION
                           -- RI-GTO INTEGRALS CHOSEN --
------------------------------------------------------------------------------

                         BASIS SET STATISTICS AND STARTUP INFO

Gaussian basis set:
 # of primitive gaussian shells          ...  114
 # of primitive gaussian functions       ...  210
 # of contracted shells                  ...   60
 # of contracted basis functions         ...  128
 Highest angular momentum                ...    2
 Maximum contraction depth               ...    5
Auxiliary gaussian basis set:
 # of primitive gaussian shells          ...  279
 # of primitive gaussian functions       ...  799
 # of contracted shells                  ...  211
 # of contracted aux-basis functions     ...  635
 Highest angular momentum                ...    4
 Maximum contraction depth               ...    5
Ratio of auxiliary to basis functions    ...  4.96
Integral package used                  ... LIBINT
 One Electron integrals                  ... done
 Ordering auxiliary basis shells         ... done
 Integral threshhold             Thresh  ...  1.000e-10
 Primitive cut-off               TCut    ...  1.000e-11
 Pre-screening matrix                    ... done
 Shell pair data                         ... 
 Ordering of the shell pairs             ... done (   0.000 sec) 1755 of 1830 pairs
 Determination of significant pairs      ... done (   0.000 sec)
 Creation of shell pair data             ... done (   0.001 sec)
 Storage of shell pair data              ... done (   0.001 sec)
 Shell pair data done in (   0.002 sec)
 Computing two index integrals           ... done
 Cholesky decomposition of the V-matrix  ... done


Timings:
 Total evaluation time                   ...   0.216 sec (  0.004 min)
 One electron matrix time                ...   0.016 sec (  0.000 min) =  7.2%
 Schwartz matrix evaluation time         ...   0.148 sec (  0.002 min) = 68.6%
 Two index repulsion integral time       ...   0.014 sec (  0.000 min) =  6.7%
 Cholesky decomposition of V             ...   0.013 sec (  0.000 min) =  6.1%
 Three index repulsion integral time     ...   0.000 sec (  0.000 min) =  0.0%

-------------------------------------------------------------------------------
                                 ORCA SCF
-------------------------------------------------------------------------------

------------
SCF SETTINGS
------------
Hamiltonian:
 Density Functional     Method          .... DFT(GTOs)
 Exchange Functional    Exchange        .... WB97X-D3
 Correlation Functional Correlation     .... WB97X-D3
 Gradients option       PostSCFGGA      .... off
 Hybrid DFT is turned on
   Fraction HF Exchange ScalHFX         ....  0.195728
   Scaling of DF-GGA-X  ScalDFX         ....  0.000000
   Scaling of DF-GGA-C  ScalDFC         ....  1.000000
   Scaling of DF-LDA-C  ScalLDAC        ....  1.000000
   Perturbative correction              ....  0.000000
 Long-range corrected/Screened/Range-Separated Hybrid DFT is turned on
   Amount of maximum screened exact exchange              ....  0.804272
   Range separation parameter mu (erf(mu*r12)/r12)        ....  0.250000
 RI-approximation to the Coulomb term is turned on
   Number of auxiliary basis functions  .... 635
   RIJ-COSX (HFX calculated with COS-X)).... on


General Settings:
 Integral files         IntName         .... /scratch/ch1tk/orca.15422/wB97XD3_def2-SVP_toluene_S0_TDA6S_2-40
 Hartree-Fock type      HFTyp           .... UHF
 Total Charge           Charge          ....    0
 Multiplicity           Mult            ....    1
 Number of Electrons    NEL             ....   50
 Basis Dimension        Dim             ....  128
 Nuclear Repulsion      ENuc            ....    266.9425536615 Eh

Convergence Acceleration:
 DIIS                   CNVDIIS         .... on
   Start iteration      DIISMaxIt       ....     0
   Startup error        DIISStart       ....  0.200000
   # of expansion vecs  DIISMaxEq       ....     5
   Bias factor          DIISBfac        ....   1.050
   Max. coefficient     DIISMaxC        ....  10.000
 Newton-Raphson         CNVNR           .... off
 SOSCF                  CNVSOSCF        .... off
 Level Shifting         CNVShift        .... on
   Level shift para.    LevelShift      ....    0.2500
   Turn off err/grad.   ShiftErr        ....    0.0000
 Zerner damping         CNVZerner       .... off
 Static damping         CNVDamp         .... on
   Fraction old density DampFac         ....    0.8500
   Max. Damping (<1)    DampMax         ....    0.9800
   Min. Damping (>=0)   DampMin         ....    0.0000
   Turn off err/grad.   DampErr         ....    0.0300
 Fernandez-Rico         CNVRico         .... off

SCF Procedure:
 Maximum # iterations   MaxIter         ....   500
 SCF integral mode      SCFMode         .... Direct
   Integral package                     .... LIBINT
 Reset frequeny         DirectResetFreq ....    20
 Integral Threshold     Thresh          ....  1.000e-10 Eh
 Primitive CutOff       TCut            ....  1.000e-11 Eh

Convergence Tolerance:
 Convergence Check Mode ConvCheckMode   .... Total+1el-Energy
 Convergence forced     ConvForced      .... 1
 Energy Change          TolE            ....  1.000e-06 Eh
 1-El. energy change                    ....  1.000e-03 Eh
 DIIS Error             TolErr          ....  1.000e-06


Diagonalization of the overlap matrix:
Smallest eigenvalue                        ... 2.789e-04
Time for diagonalization                   ...    0.004 sec
Threshold for overlap eigenvalues          ... 1.000e-08
Number of eigenvalues below threshold      ... 0
Time for construction of square roots      ...    0.001 sec
Total time needed                          ...    0.005 sec

-------------------
DFT GRID GENERATION
-------------------

General Integration Accuracy     IntAcc      ...  4.340
Radial Grid Type                 RadialGrid  ... Gauss-Chebyshev
Angular Grid (max. acc.)         AngularGrid ... Lebedev-110
Angular grid pruning method      GridPruning ... 3 (G Style)
Weight generation scheme         WeightScheme... Becke
Basis function cutoff            BFCut       ...    1.0000e-10
Integration weight cutoff        WCut        ...    1.0000e-14
Grids for H and He will be reduced by one unit

# of grid points (after initial pruning)     ...  16416 (   0.0 sec)
# of grid points (after weights+screening)   ...  15359 (   0.0 sec)
nearest neighbour list constructed           ...    0.0 sec
Grid point re-assignment to atoms done       ...    0.0 sec
Grid point division into batches done        ...    0.0 sec
Reduced shell lists constructed in    0.3 sec

Total number of grid points                  ...    15359
Total number of batches                      ...      246
Average number of points per batch           ...       62
Average number of grid points per atom       ...     1181
Average number of shells per batch           ...    43.91 (73.19%)
Average number of basis functions per batch  ...    93.50 (73.05%)
Average number of large shells per batch     ...    35.21 (80.18%)
Average number of large basis fcns per batch ...    74.06 (79.21%)
Maximum spatial batch extension              ...  20.15, 16.74, 25.60 au
Average spatial batch extension              ...   3.98,  3.54,  5.53 au

Time for grid setup =    0.293 sec

------------------------------
INITIAL GUESS: MODEL POTENTIAL
------------------------------
Loading Hartree-Fock densities                     ... done
Calculating cut-offs                               ... done
Setting up the integral package                    ... done
Initializing the effective Hamiltonian             ... done
Starting the Coulomb interaction                   ... done (   0.1 sec)
Reading the grid                                   ... done
Mapping shells                                     ... done
Starting the XC term evaluation                    ... done (   0.3 sec)
  promolecular density results
     # of electrons  =     49.999447953
     EX              =    -40.496377798
     EC              =     -1.631826563
     EX+EC           =    -42.128204362
Transforming the Hamiltonian                       ... done (   0.0 sec)
Diagonalizing the Hamiltonian                      ... done (   0.0 sec)
Back transforming the eigenvectors                 ... done (   0.0 sec)
Now organizing SCF variables                       ... done
                      ------------------
                      INITIAL GUESS DONE (   0.8 sec)
                      ------------------
--------------------
COSX GRID GENERATION
--------------------

General Integration Accuracy     IntAcc      ...  3.340
Radial Grid Type                 RadialGrid  ... Gauss-Chebyshev
Angular Grid (max. acc.)         AngularGrid ... Lebedev-50
Angular grid pruning method      GridPruning ... 3 (G Style)
Weight generation scheme         WeightScheme... Becke
Basis function cutoff            BFCut       ...    1.0000e-10
Integration weight cutoff        WCut        ...    1.0000e-14
Grids for H and He will be reduced by one unit

# of grid points (after initial pruning)     ...   5980 (   0.0 sec)
# of grid points (after weights+screening)   ...   5659 (   0.0 sec)
nearest neighbour list constructed           ...    0.0 sec
Grid point re-assignment to atoms done       ...    0.0 sec
Grid point division into batches done        ...    0.0 sec
Reduced shell lists constructed in    0.1 sec

Total number of grid points                  ...     5659
Total number of batches                      ...       95
Average number of points per batch           ...       59
Average number of grid points per atom       ...      435
Average number of shells per batch           ...    46.72 (77.86%)
Average number of basis functions per batch  ...   100.22 (78.30%)
Average number of large shells per batch     ...    38.53 (82.47%)
Average number of large basis fcns per batch ...    82.16 (81.98%)
Maximum spatial batch extension              ...  16.61, 14.62, 25.32 au
Average spatial batch extension              ...   4.94,  4.55,  7.25 au

Overlap Fitting                  UseSFitting ... on
Constructing numerical overlap ... done (      0.1 sec)
Inverting numerical overlap    ... done (      0.0 sec)
Obtaining analytic overlap     ... done (      0.0 sec)
Final contraction and storage  ... done (      0.0 sec)


General Integration Accuracy     IntAcc      ...  3.670
Radial Grid Type                 RadialGrid  ... Gauss-Chebyshev
Angular Grid (max. acc.)         AngularGrid ... Lebedev-50
Angular grid pruning method      GridPruning ... 3 (G Style)
Weight generation scheme         WeightScheme... Becke
Basis function cutoff            BFCut       ...    1.0000e-10
Integration weight cutoff        WCut        ...    1.0000e-14
Grids for H and He will be reduced by one unit

# of grid points (after initial pruning)     ...   7582 (   0.0 sec)
# of grid points (after weights+screening)   ...   7157 (   0.0 sec)
nearest neighbour list constructed           ...    0.0 sec
Grid point re-assignment to atoms done       ...    0.0 sec
Grid point division into batches done        ...    0.0 sec
Reduced shell lists constructed in    0.1 sec

Total number of grid points                  ...     7157
Total number of batches                      ...      117
Average number of points per batch           ...       61
Average number of grid points per atom       ...      551
Average number of shells per batch           ...    46.18 (76.96%)
Average number of basis functions per batch  ...    98.70 (77.11%)
Average number of large shells per batch     ...    37.53 (81.28%)
Average number of large basis fcns per batch ...    79.21 (80.25%)
Maximum spatial batch extension              ...  17.81, 15.26, 30.56 au
Average spatial batch extension              ...   4.60,  4.30,  7.15 au

Overlap Fitting                  UseSFitting ... on
Constructing numerical overlap ... done (      0.1 sec)
Inverting numerical overlap    ... done (      0.0 sec)
Obtaining analytic overlap     ... done (      0.0 sec)
Final contraction and storage  ... done (      0.0 sec)


General Integration Accuracy     IntAcc      ...  4.010
Radial Grid Type                 RadialGrid  ... Gauss-Chebyshev
Angular Grid (max. acc.)         AngularGrid ... Lebedev-110
Angular grid pruning method      GridPruning ... 3 (G Style)
Weight generation scheme         WeightScheme... Becke
Basis function cutoff            BFCut       ...    1.0000e-10
Integration weight cutoff        WCut        ...    1.0000e-14
Grids for H and He will be reduced by one unit

# of grid points (after initial pruning)     ...  14238 (   0.0 sec)
# of grid points (after weights+screening)   ...  13336 (   0.0 sec)
nearest neighbour list constructed           ...    0.0 sec
Grid point re-assignment to atoms done       ...    0.0 sec
Grid point division into batches done        ...    0.0 sec
Reduced shell lists constructed in    0.2 sec

Total number of grid points                  ...    13336
Total number of batches                      ...      214
Average number of points per batch           ...       62
Average number of grid points per atom       ...     1026
Average number of shells per batch           ...    44.41 (74.02%)
Average number of basis functions per batch  ...    94.44 (73.78%)
Average number of large shells per batch     ...    35.79 (80.59%)
Average number of large basis fcns per batch ...    75.20 (79.63%)
Maximum spatial batch extension              ...  21.50, 15.92, 41.97 au
Average spatial batch extension              ...   4.17,  3.56,  5.67 au

Overlap Fitting                  UseSFitting ... on
Constructing numerical overlap ... done (      0.1 sec)
Inverting numerical overlap    ... done (      0.0 sec)
Obtaining analytic overlap     ... done (      0.0 sec)
Final contraction and storage  ... done (      0.0 sec)

Time for X-Grid setup             =    0.833 sec
--------------
SCF ITERATIONS
--------------
ITER       Energy         Delta-E        Max-DP      RMS-DP      [F,P]     Damp
               ***  Starting incremental Fock matrix formation  ***
  0   -306.5650097281   0.000000000000 0.04227861  0.00094319  0.3071853 0.8500
  1   -306.6566908045  -0.091681076406 0.04387061  0.00093238  0.1999690 0.8500
                               ***Turning on DIIS***
  2   -306.7200654782  -0.063374673694 0.03591854  0.00075961  0.1206022 0.8500
  3   -306.7560823535  -0.036016875266 0.01870180  0.00051857  0.0640840 0.8500
  4   -306.7816228420  -0.025540488570 0.00965219  0.00037357  0.0431805 0.8500
  5   -306.8022873227  -0.020664480667 0.00815458  0.00028561  0.0369358 0.8500
  6   -306.8196565029  -0.017369180217 0.00684944  0.00023142  0.0363382 0.8500
  7   -306.8344974640  -0.014840961057 0.00581591  0.00019619  0.0353363 0.8500
  8   -306.8473522653  -0.012854801281 0.00498539  0.00017195  0.0311465 0.8500
  9   -306.8584179877  -0.011065722388 0.02883224  0.00098892  0.0250409 0.0000
 10   -306.9226574556  -0.064239467914 0.00311598  0.00007841  0.0067323 0.0000
 11   -306.9227063474  -0.000048891812 0.00141063  0.00003103  0.0067985 0.0000
 12   -306.9227539896  -0.000047642214 0.00058455  0.00001946  0.0024941 0.0000
 13   -306.9227647549  -0.000010765264 0.00046916  0.00001311  0.0012962 0.0000
               *** Restarting incremental Fock matrix formation ***
                                   *** Resetting DIIS ***
 14   -306.9227689361  -0.000004181240 0.00013948  0.00000566  0.0003047 0.0000
 15   -306.9227698329  -0.000000896785 0.00010587  0.00000342  0.0001411 0.0000
 16   -306.9227701938  -0.000000360877 0.00009866  0.00000339  0.0001849 0.0000
                 **** Energy Check signals convergence ****

               *****************************************************
               *                     SUCCESS                       *
               *           SCF CONVERGED AFTER  17 CYCLES          *
               *****************************************************


------------------------------------------------------------------------------
                          SCF STABILITY ANALYSIS                              
------------------------------------------------------------------------------


---------------
TD-DFT XC SETUP
---------------

DFT calculation                         ... on
Name of the grid file                   ... /scratch/ch1tk/orca.15422/wB97XD3_def2-SVP_toluene_S0_TDA6S_2-40.grid.tmp
Exchange functional (SCF)               ... WB97X-D3
Exchange functional (TD-DFT)            ... WB97X-D3
Correlation functional (SCF)            ... WB97X-D3
Correlation functional (TD-DFT)         ... WB97X-D3
Hybrid DFT                              ... on
   Exchange mixing (SCF)                ...  0.196
   Exchange mixing (TD-DFT)             ...  0.196
   GGA exch. scaling(SCF)               ...  0.000
   GGA exch. scaling (TD-DFT)           ...  0.000
   GGA corr. scaling (SCF)              ...  1.000
   GGA corr. scaling (TD-DFT)           ...  1.000
Range-Separated Exchange                ... on
   Range Range separation parameter mu  .... 0.250
   Max. amount of RS exchange (SCF)     ...  0.804
   Max. amount of RS exchange (TD-DFT)  ...  0.804

Electron density on the grid   ... found on disk
Building xc-kernel on the grid ... done
                    *** TD-DFT CALCULATION INITIALIZED ***

                       ****Iteration    0****

   Memory handling for direct AO based CIS:
   Memory per vector needed      ...     1 MB
   Memory needed                 ...     7 MB
   Memory available              ...  1024 MB
   Number of vectors per batch   ...   783
   Number of batches             ...     1
   Time for densities:     0.007
   Time for XC-Integration:     1.448
   Time for K (COSX):    10.173
   Time for RI-J (Direct):     1.538
   Time for Sigma-Completion:     0.032
   Lowest Energy          :    -0.118377358572
   Maximum Energy change  :     0.118377358572 (vector 0)
   Maximum residual norm  :     0.020035764544

                       ****Iteration    1****
   Time for densities:     0.003
   Time for XC-Integration:     0.814
   Time for K (COSX):     9.813
   Time for RI-J (Direct):     0.803
   Time for Sigma-Completion:     0.016
   Lowest Energy          :    -0.152057391652
   Maximum Energy change  :     0.033680033080 (vector 0)
   Maximum residual norm  :     0.001055391574

                       ****Iteration    2****
   Time for densities:     0.004
   Time for XC-Integration:     0.845
   Time for K (COSX):     9.908
   Time for RI-J (Direct):     0.826
   Time for Sigma-Completion:     0.016
   Lowest Energy          :    -0.152718984893
   Maximum Energy change  :     0.002088768888 (vector 1)
   Maximum residual norm  :     0.000085888181

      *** CONVERGENCE OF RESIDUAL NORM REACHED ***

----------------------------- 
SCF STABILITY ANALYSIS RESULT 
----------------------------- 

UHF/UKS->UHF/UKS - singlet - internal

   Root    Eigenvalue (au) 
     0      -0.152719 
     1      -0.044339 
     2      -0.010896 

Stability Analysis indicates an UNSTABLE HF/KS wave function with SEVERAL negative eigenvalues.

Since this is UHF/UKS, we will restart the SCF using a new guess based on the eigenvector 
associated with the lowest eigenvalue. Because there is no guarantee that the restart     
will result in a stable solution, the user should check the stability of the resulting    
wave function in a separate calculation using the MOREAD guess feature.

Obtain new guess               ... done 

Total time for performing the stability analysis:    36.286sec

--------------------------
SCF ITERATIONS (restarted)
--------------------------
ITER       Energy         Delta-E        Max-DP      RMS-DP      [F,P]     Damp
               ***  Starting incremental Fock matrix formation  ***
  0   -306.9467509093   0.000000000000 0.00323120  0.00005963  0.0101499 0.8500
  1   -306.9476564207  -0.000905511328 0.00404839  0.00008030  0.0086840 0.8500
                               ***Turning on DIIS***
  2   -306.9487826074  -0.001126186739 0.02806649  0.00057850  0.0074086 0.0000
  3   -306.9608795464  -0.012096938963 0.01977038  0.00035733  0.0034684 0.0000
  4   -306.9674983206  -0.006618774238 0.01520113  0.00029762  0.0040169 0.0000
  5   -306.9721338029  -0.004635482324 0.01772042  0.00036933  0.0029502 0.0000
  6   -306.9762530083  -0.004119205432 0.01198861  0.00022245  0.0017122 0.0000
  7   -306.9776646970  -0.001411688699 0.00437918  0.00007397  0.0032297 0.0000
  8   -306.9779348563  -0.000270159270 0.00676706  0.00012277  0.0021793 0.0000
  9   -306.9782203539  -0.000285497609 0.00199791  0.00004648  0.0025094 0.0000
 10   -306.9782623320  -0.000041978079 0.00278244  0.00004844  0.0006035 0.0000
 11   -306.9782981326  -0.000035800602 0.00076160  0.00001455  0.0005891 0.0000
 12   -306.9783026031  -0.000004470543 0.00050507  0.00000964  0.0003177 0.0000
 13   -306.9783040480  -0.000001444802 0.00019512  0.00000431  0.0002021 0.0000
                 **** Energy Check signals convergence ****

               *****************************************************
               *                     SUCCESS                       *
               *           SCF CONVERGED AFTER  14 CYCLES          *
               *****************************************************

Setting up the final grid:

General Integration Accuracy     IntAcc      ...  4.670
Radial Grid Type                 RadialGrid  ... Gauss-Chebyshev
Angular Grid (max. acc.)         AngularGrid ... Lebedev-302
Angular grid pruning method      GridPruning ... 3 (G Style)
Weight generation scheme         WeightScheme... Becke
Basis function cutoff            BFCut       ...    1.0000e-10
Integration weight cutoff        WCut        ...    1.0000e-14
Grids for H and He will be reduced by one unit

# of grid points (after initial pruning)     ...  63848 (   0.0 sec)
# of grid points (after weights+screening)   ...  59155 (   0.1 sec)
nearest neighbour list constructed           ...    0.0 sec
Grid point re-assignment to atoms done       ...    0.0 sec
Grid point division into batches done        ...    0.2 sec
Reduced shell lists constructed in    1.0 sec

Total number of grid points                  ...    59155
Total number of batches                      ...      930
Average number of points per batch           ...       63
Average number of grid points per atom       ...     4550
Average number of shells per batch           ...    39.85 (66.42%)
Average number of basis functions per batch  ...    84.23 (65.80%)
Average number of large shells per batch     ...    31.23 (78.36%)
Average number of large basis fcns per batch ...    64.96 (77.13%)
Maximum spatial batch extension              ...  15.78, 16.67, 24.37 au
Average spatial batch extension              ...   2.62,  2.46,  3.09 au

Final grid set up in    1.1 sec
Final integration                            ... done (   1.4 sec)
Change in XC energy                          ...     0.000962815
Integrated number of electrons               ...    49.999987437
Previous integrated no of electrons          ...    49.997896385
Old exchange energy                            =    -13.427613679 Eh
New exchange energy                            =    -13.427894616 Eh
Exchange energy change after final integration =     -0.000280937 Eh
Total energy after final integration           =   -306.977622550 Eh
Final COS-X integration done in                =     8.350 sec

----------------
TOTAL SCF ENERGY
----------------

Total Energy       :         -306.97762255 Eh           -8353.28578 eV

Components:
Nuclear Repulsion  :          266.94255366 Eh            7263.87617 eV
Electronic Energy  :         -573.92017621 Eh          -15617.16196 eV
One Electron Energy:         -943.28764310 Eh          -25668.16171 eV
Two Electron Energy:          369.36746689 Eh           10050.99976 eV

Virial components:
Potential Energy   :         -610.81714140 Eh          -16621.17942 eV
Kinetic Energy     :          303.83951885 Eh            8267.89364 eV
Virial Ratio       :            2.01032816


DFT components:
N(Alpha)           :       24.999995652527 electrons
N(Beta)            :       24.999991784486 electrons
N(Total)           :       49.999987437014 electrons
E(XC)              :      -29.668632507660 Eh       

---------------
SCF CONVERGENCE
---------------

  Last Energy change         ...   -3.8013e-07  Tolerance :   1.0000e-06
  Last MAX-Density change    ...    0.0000e+00  Tolerance :   1.0000e-05
  Last RMS-Density change    ...    0.0000e+00  Tolerance :   1.0000e-06
  Last DIIS Error            ...    1.1552e-04  Tolerance :   1.0000e-06

             **** THE GBW FILE WAS UPDATED (/scratch/ch1tk/orca.15422/wB97XD3_def2-SVP_toluene_S0_TDA6S_2-40.gbw) ****
             **** DENSITY FILE WAS UPDATED (/scratch/ch1tk/orca.15422/wB97XD3_def2-SVP_toluene_S0_TDA6S_2-40.scfp.tmp) ****
             **** ENERGY FILE WAS UPDATED (/scratch/ch1tk/orca.15422/wB97XD3_def2-SVP_toluene_S0_TDA6S_2-40.en.tmp) ****

     --------------------------------------------------------------------
                                      WARNING
     A stability analysis of the first UHF/UKS SCF solution was performed
     and an instability detected. The result was used as a guess for
     a second SCF, which has converged. There is no guarantee that the
     current solution is stable - it is up to you to rerun the stability
     analysis using the now stored solution as a guess and verify.
     --------------------------------------------------------------------

----------------------
UHF SPIN CONTAMINATION
----------------------

Warning: in a DFT calculation there is little theoretical justification to 
         calculate <S**2> as in Hartree-Fock theory. We will do it anyways
         but you should keep in mind that the values have only limited relevance

Expectation value of <S**2>     :     0.927680
Ideal value S*(S+1) for S=0.0   :     0.000000
Deviation                       :     0.927680

----------------
ORBITAL ENERGIES
----------------
                 SPIN UP ORBITALS
  NO   OCC          E(Eh)            E(eV) 
   0   1.0000     -19.304898      -525.3130 
   1   1.0000     -10.364470      -282.0316 
   2   1.0000     -10.306099      -280.4432 
   3   1.0000     -10.305669      -280.4315 
   4   1.0000     -10.303567      -280.3743 
   5   1.0000     -10.303213      -280.3647 
   6   1.0000     -10.294148      -280.1180 
   7   1.0000      -1.115896       -30.3651 
   8   1.0000      -0.968022       -26.3412 
   9   1.0000      -0.867001       -23.5923 
  10   1.0000      -0.841342       -22.8941 
  11   1.0000      -0.724837       -19.7238 
  12   1.0000      -0.698724       -19.0133 
  13   1.0000      -0.625188       -17.0122 
  14   1.0000      -0.572463       -15.5775 
  15   1.0000      -0.569333       -15.4923 
  16   1.0000      -0.534665       -14.5490 
  17   1.0000      -0.530187       -14.4271 
  18   1.0000      -0.522705       -14.2235 
  19   1.0000      -0.464802       -12.6479 
  20   1.0000      -0.452560       -12.3148 
  21   1.0000      -0.443162       -12.0591 
  22   1.0000      -0.414973       -11.2920 
  23   1.0000      -0.353089        -9.6080 
  24   1.0000      -0.313739        -8.5373 
  25   0.0000      -0.076314        -2.0766 
  26   0.0000       0.059176         1.6103 
  27   0.0000       0.077185         2.1003 
  28   0.0000       0.145903         3.9702 
  29   0.0000       0.185028         5.0349 
  30   0.0000       0.202195         5.5020 
  31   0.0000       0.232239         6.3196 
  32   0.0000       0.239934         6.5289 
  33   0.0000       0.246449         6.7062 
  34   0.0000       0.295740         8.0475 
  35   0.0000       0.350282         9.5317 
  36   0.0000       0.371065        10.0972 
  37   0.0000       0.383051        10.4233 
  38   0.0000       0.412548        11.2260 
  39   0.0000       0.442511        12.0413 
  40   0.0000       0.496491        13.5102 
  41   0.0000       0.497012        13.5244 
  42   0.0000       0.522962        14.2305 
  43   0.0000       0.532422        14.4879 
  44   0.0000       0.557070        15.1586 
  45   0.0000       0.561605        15.2820 
  46   0.0000       0.584317        15.9001 
  47   0.0000       0.601520        16.3682 
  48   0.0000       0.627504        17.0753 
  49   0.0000       0.631323        17.1792 
  50   0.0000       0.633399        17.2357 
  51   0.0000       0.674397        18.3513 
  52   0.0000       0.695243        18.9185 
  53   0.0000       0.703574        19.1452 
  54   0.0000       0.730084        19.8666 
  55   0.0000       0.744069        20.2471 
  56   0.0000       0.764678        20.8080 
  57   0.0000       0.780254        21.2318 
  58   0.0000       0.804116        21.8811 
  59   0.0000       0.813834        22.1456 
  60   0.0000       0.830415        22.5967 
  61   0.0000       0.836653        22.7665 
  62   0.0000       0.865445        23.5499 
  63   0.0000       0.892536        24.2871 
  64   0.0000       0.907733        24.7007 
  65   0.0000       0.958190        26.0737 
  66   0.0000       1.012826        27.5604 
  67   0.0000       1.090965        29.6867 
  68   0.0000       1.108196        30.1555 
  69   0.0000       1.161361        31.6022 
  70   0.0000       1.209474        32.9115 
  71   0.0000       1.272503        34.6266 
  72   0.0000       1.309837        35.6425 
  73   0.0000       1.326327        36.0912 
  74   0.0000       1.330173        36.1958 
  75   0.0000       1.366622        37.1877 
  76   0.0000       1.367189        37.2031 
  77   0.0000       1.390223        37.8299 
  78   0.0000       1.449240        39.4358 
  79   0.0000       1.497402        40.7464 
  80   0.0000       1.535446        41.7816 
  81   0.0000       1.577913        42.9372 
  82   0.0000       1.580698        43.0130 
  83   0.0000       1.600048        43.5395 
  84   0.0000       1.747733        47.5582 
  85   0.0000       1.754880        47.7527 
  86   0.0000       1.782862        48.5142 
  87   0.0000       1.826206        49.6936 
  88   0.0000       1.836812        49.9822 
  89   0.0000       1.838317        50.0231 
  90   0.0000       1.858464        50.5714 
  91   0.0000       1.879273        51.1376 
  92   0.0000       1.887212        51.3536 
  93   0.0000       1.891767        51.4776 
  94   0.0000       1.931306        52.5535 
  95   0.0000       1.989331        54.1324 
  96   0.0000       2.038334        55.4659 
  97   0.0000       2.068286        56.2809 
  98   0.0000       2.075114        56.4667 
  99   0.0000       2.131239        57.9940 
 100   0.0000       2.190533        59.6074 
 101   0.0000       2.225226        60.5515 
 102   0.0000       2.237957        60.8979 
 103   0.0000       2.282271        62.1037 
 104   0.0000       2.305668        62.7404 
 105   0.0000       2.354687        64.0743 
 106   0.0000       2.357609        64.1538 
 107   0.0000       2.398062        65.2546 
 108   0.0000       2.433964        66.2315 
 109   0.0000       2.439078        66.3707 
 110   0.0000       2.596457        70.6532 
 111   0.0000       2.635593        71.7181 
 112   0.0000       2.674840        72.7861 
 113   0.0000       2.682536        72.9955 
 114   0.0000       2.733818        74.3910 
 115   0.0000       2.790409        75.9309 
 116   0.0000       2.800336        76.2010 
 117   0.0000       2.819353        76.7185 
 118   0.0000       2.822542        76.8053 
 119   0.0000       2.944390        80.1209 
 120   0.0000       2.972923        80.8974 
 121   0.0000       3.063509        83.3623 
 122   0.0000       3.097342        84.2830 
 123   0.0000       3.116068        84.7925 
 124   0.0000       3.247052        88.3568 
 125   0.0000       3.449209        93.8578 
 126   0.0000       3.489246        94.9472 
 127   0.0000       3.784572       102.9834 

                 SPIN DOWN ORBITALS
  NO   OCC          E(Eh)            E(eV) 
   0   1.0000     -19.323101      -525.8083 
   1   1.0000     -10.364192      -282.0240 
   2   1.0000     -10.306245      -280.4472 
   3   1.0000     -10.305714      -280.4327 
   4   1.0000     -10.304243      -280.3927 
   5   1.0000     -10.304219      -280.3921 
   6   1.0000     -10.294064      -280.1157 
   7   1.0000      -1.170155       -31.8415 
   8   1.0000      -0.973177       -26.4815 
   9   1.0000      -0.868956       -23.6455 
  10   1.0000      -0.849334       -23.1116 
  11   1.0000      -0.732343       -19.9281 
  12   1.0000      -0.704479       -19.1699 
  13   1.0000      -0.631166       -17.1749 
  14   1.0000      -0.595034       -16.1917 
  15   1.0000      -0.578902       -15.7527 
  16   1.0000      -0.541798       -14.7431 
  17   1.0000      -0.533838       -14.5265 
  18   1.0000      -0.531169       -14.4538 
  19   1.0000      -0.496305       -13.5052 
  20   1.0000      -0.466273       -12.6879 
  21   1.0000      -0.452862       -12.3230 
  22   1.0000      -0.439699       -11.9648 
  23   1.0000      -0.353399        -9.6165 
  24   1.0000      -0.321547        -8.7497 
  25   0.0000       0.026269         0.7148 
  26   0.0000       0.058419         1.5897 
  27   0.0000       0.075955         2.0668 
  28   0.0000       0.146201         3.9783 
  29   0.0000       0.186242         5.0679 
  30   0.0000       0.203036         5.5249 
  31   0.0000       0.231826         6.3083 
  32   0.0000       0.245404         6.6778 
  33   0.0000       0.246022         6.6946 
  34   0.0000       0.291786         7.9399 
  35   0.0000       0.352823         9.6008 
  36   0.0000       0.370706        10.0874 
  37   0.0000       0.382192        10.4000 
  38   0.0000       0.407971        11.1015 
  39   0.0000       0.441016        12.0007 
  40   0.0000       0.495653        13.4874 
  41   0.0000       0.496537        13.5115 
  42   0.0000       0.520773        14.1710 
  43   0.0000       0.531279        14.4568 
  44   0.0000       0.556678        15.1480 
  45   0.0000       0.579150        15.7595 
  46   0.0000       0.592688        16.1279 
  47   0.0000       0.624813        17.0020 
  48   0.0000       0.626920        17.0594 
  49   0.0000       0.632858        17.2209 
  50   0.0000       0.666407        18.1339 
  51   0.0000       0.694607        18.9012 
  52   0.0000       0.703410        19.1407 
  53   0.0000       0.728266        19.8171 
  54   0.0000       0.743950        20.2439 
  55   0.0000       0.763709        20.7816 
  56   0.0000       0.779803        21.2195 
  57   0.0000       0.801722        21.8160 
  58   0.0000       0.812785        22.1170 
  59   0.0000       0.828380        22.5414 
  60   0.0000       0.836535        22.7633 
  61   0.0000       0.851909        23.1816 
  62   0.0000       0.866210        23.5708 
  63   0.0000       0.899223        24.4691 
  64   0.0000       0.909451        24.7474 
  65   0.0000       0.961417        26.1615 
  66   0.0000       1.010481        27.4966 
  67   0.0000       1.077778        29.3278 
  68   0.0000       1.105932        30.0939 
  69   0.0000       1.151623        31.3373 
  70   0.0000       1.198353        32.6088 
  71   0.0000       1.271851        34.6088 
  72   0.0000       1.307054        35.5668 
  73   0.0000       1.324909        36.0526 
  74   0.0000       1.330023        36.1918 
  75   0.0000       1.365699        37.1626 
  76   0.0000       1.366704        37.1899 
  77   0.0000       1.389939        37.8222 
  78   0.0000       1.531442        41.6726 
  79   0.0000       1.565149        42.5899 
  80   0.0000       1.586064        43.1590 
  81   0.0000       1.588955        43.2377 
  82   0.0000       1.615177        43.9512 
  83   0.0000       1.743694        47.4483 
  84   0.0000       1.752207        47.6800 
  85   0.0000       1.782682        48.5092 
  86   0.0000       1.787273        48.6342 
  87   0.0000       1.825807        49.6827 
  88   0.0000       1.836603        49.9765 
  89   0.0000       1.837831        50.0099 
  90   0.0000       1.861486        50.6536 
  91   0.0000       1.878936        51.1284 
  92   0.0000       1.886044        51.3219 
  93   0.0000       1.891107        51.4596 
  94   0.0000       1.938541        52.7504 
  95   0.0000       1.986064        54.0435 
  96   0.0000       2.038286        55.4646 
  97   0.0000       2.067929        56.2712 
  98   0.0000       2.074813        56.4585 
  99   0.0000       2.127803        57.9005 
 100   0.0000       2.189714        59.5852 
 101   0.0000       2.224653        60.5359 
 102   0.0000       2.240117        60.9567 
 103   0.0000       2.280324        62.0508 
 104   0.0000       2.303645        62.6854 
 105   0.0000       2.349837        63.9423 
 106   0.0000       2.350564        63.9621 
 107   0.0000       2.397244        65.2323 
 108   0.0000       2.433160        66.2096 
 109   0.0000       2.437281        66.3218 
 110   0.0000       2.595580        70.6293 
 111   0.0000       2.617231        71.2185 
 112   0.0000       2.630903        71.5905 
 113   0.0000       2.657122        72.3040 
 114   0.0000       2.725347        74.1605 
 115   0.0000       2.731834        74.3370 
 116   0.0000       2.769488        75.3616 
 117   0.0000       2.819181        76.7138 
 118   0.0000       2.821356        76.7730 
 119   0.0000       2.941828        80.0512 
 120   0.0000       2.971858        80.8684 
 121   0.0000       3.049731        82.9874 
 122   0.0000       3.089163        84.0604 
 123   0.0000       3.107641        84.5632 
 124   0.0000       3.241772        88.2131 
 125   0.0000       3.425760        93.2197 
 126   0.0000       3.466099        94.3173 
 127   0.0000       3.777033       102.7783 

                    ********************************
                    * MULLIKEN POPULATION ANALYSIS *
                    ********************************

--------------------------------------------
MULLIKEN ATOMIC CHARGES AND SPIN POPULATIONS
--------------------------------------------
   0 C :   -0.007966   -0.006292
   1 C :   -0.068979   -0.042239
   2 C :    0.193860    0.044664
   3 C :   -0.076842   -0.025898
   4 C :   -0.010806   -0.003200
   5 C :   -0.032083    0.009375
   6 H :    0.030487   -0.003074
   7 H :    0.027143    0.000455
   8 H :    0.014325   -0.001292
   9 H :    0.028862   -0.002381
  10 H :    0.023275   -0.000224
  11 O :   -0.149223   -0.917329
  12 H :    0.027946    0.947434
Sum of atomic charges         :   -0.0000000
Sum of atomic spin populations:   -0.0000000

-----------------------------------------------------
MULLIKEN REDUCED ORBITAL CHARGES AND SPIN POPULATIONS
-----------------------------------------------------
CHARGE
  0 C s       :     3.149354  s :     3.149354
      pz      :     0.964639  p :     2.822470
      px      :     0.921469
      py      :     0.936363
      dz2     :     0.002565  d :     0.036142
      dxz     :     0.003850
      dyz     :     0.006758
      dx2y2   :     0.011165
      dxy     :     0.011804
  1 C s       :     3.200256  s :     3.200256
      pz      :     1.065264  p :     2.835717
      px      :     0.877586
      py      :     0.892868
      dz2     :     0.002719  d :     0.033005
      dxz     :     0.003465
      dyz     :     0.005451
      dx2y2   :     0.008660
      dxy     :     0.012710
  2 C s       :     2.956808  s :     2.956808
      pz      :     0.961506  p :     2.775188
      px      :     1.027634
      py      :     0.786047
      dz2     :     0.005568  d :     0.074143
      dxz     :     0.007730
      dyz     :     0.019746
      dx2y2   :     0.025111
      dxy     :     0.015989
  3 C s       :     3.200598  s :     3.200598
      pz      :     1.070768  p :     2.843234
      px      :     0.866798
      py      :     0.905667
      dz2     :     0.002708  d :     0.033009
      dxz     :     0.003615
      dyz     :     0.005282
      dx2y2   :     0.008971
      dxy     :     0.012433
  4 C s       :     3.151224  s :     3.151224
      pz      :     0.964377  p :     2.823411
      px      :     0.916326
      py      :     0.942708
      dz2     :     0.002575  d :     0.036171
      dxz     :     0.003697
      dyz     :     0.006920
      dx2y2   :     0.011424
      dxy     :     0.011556
  5 C s       :     3.144365  s :     3.144365
      pz      :     1.027952  p :     2.853372
      px      :     0.954504
      py      :     0.870916
      dz2     :     0.002558  d :     0.034346
      dxz     :     0.006228
      dyz     :     0.002554
      dx2y2   :     0.012394
      dxy     :     0.010612
  6 H s       :     0.946899  s :     0.946899
      pz      :     0.004406  p :     0.022614
      px      :     0.011735
      py      :     0.006473
  7 H s       :     0.949889  s :     0.949889
      pz      :     0.004881  p :     0.022968
      px      :     0.012027
      py      :     0.006060
  8 H s       :     0.962447  s :     0.962447
      pz      :     0.004918  p :     0.023228
      px      :     0.011785
      py      :     0.006525
  9 H s       :     0.948582  s :     0.948582
      pz      :     0.004412  p :     0.022556
      px      :     0.012235
      py      :     0.005909
 10 H s       :     0.953709  s :     0.953709
      pz      :     0.004824  p :     0.023016
      px      :     0.003044
      py      :     0.015148
 11 O s       :     3.856036  s :     3.856036
      pz      :     1.843732  p :     4.281197
      px      :     1.060493
      py      :     1.376973
      dz2     :     0.001652  d :     0.011990
      dxz     :     0.000032
      dyz     :     0.002963
      dx2y2   :     0.004919
      dxy     :     0.002424
 12 H s       :     0.971490  s :     0.971490
      pz      :     0.000029  p :     0.000564
      px      :     0.000333
      py      :     0.000202

SPIN
  0 C s       :    -0.000673  s :    -0.000673
      pz      :    -0.000617  p :    -0.005520
      px      :     0.000237
      py      :    -0.005140
      dz2     :    -0.000007  d :    -0.000100
      dxz     :     0.000031
      dyz     :     0.000080
      dx2y2   :    -0.000025
      dxy     :    -0.000179
  1 C s       :    -0.013594  s :    -0.013594
      pz      :     0.002594  p :    -0.028480
      px      :    -0.017244
      py      :    -0.013831
      dz2     :    -0.000040  d :    -0.000165
      dxz     :    -0.000104
      dyz     :    -0.000005
      dx2y2   :     0.000097
      dxy     :    -0.000114
  2 C s       :     0.012205  s :     0.012205
      pz      :     0.001019  p :     0.041770
      px      :     0.016967
      py      :     0.023784
      dz2     :    -0.000054  d :    -0.009310
      dxz     :    -0.000057
      dyz     :     0.000500
      dx2y2   :     0.000002
      dxy     :    -0.009701
  3 C s       :    -0.008082  s :    -0.008082
      pz      :     0.004603  p :    -0.017798
      px      :    -0.015595
      py      :    -0.006806
      dz2     :    -0.000040  d :    -0.000018
      dxz     :    -0.000104
      dyz     :    -0.000006
      dx2y2   :     0.000187
      dxy     :    -0.000054
  4 C s       :    -0.000158  s :    -0.000158
      pz      :    -0.000602  p :    -0.002997
      px      :    -0.000159
      py      :    -0.002237
      dz2     :    -0.000002  d :    -0.000045
      dxz     :     0.000028
      dyz     :     0.000102
      dx2y2   :    -0.000017
      dxy     :    -0.000155
  5 C s       :     0.001026  s :     0.001026
      pz      :     0.007622  p :     0.008392
      px      :     0.000560
      py      :     0.000210
      dz2     :    -0.000020  d :    -0.000042
      dxz     :     0.000014
      dyz     :    -0.000013
      dx2y2   :     0.000028
      dxy     :    -0.000051
  6 H s       :    -0.003086  s :    -0.003086
      pz      :    -0.000007  p :     0.000013
      px      :    -0.000011
      py      :     0.000031
  7 H s       :     0.000457  s :     0.000457
      pz      :     0.000033  p :    -0.000002
      px      :    -0.000065
      py      :     0.000030
  8 H s       :    -0.001712  s :    -0.001712
      pz      :     0.000048  p :     0.000420
      px      :     0.000073
      py      :     0.000299
  9 H s       :    -0.002393  s :    -0.002393
      pz      :    -0.000007  p :     0.000012
      px      :    -0.000004
      py      :     0.000023
 10 H s       :    -0.000282  s :    -0.000282
      pz      :     0.000053  p :     0.000058
      px      :     0.000002
      py      :     0.000002
 11 O s       :    -0.017906  s :    -0.017906
      pz      :    -0.015209  p :    -0.899312
      px      :    -0.862288
      py      :    -0.021815
      dz2     :    -0.000118  d :    -0.000112
      dxz     :    -0.000003
      dyz     :     0.000002
      dx2y2   :     0.000106
      dxy     :    -0.000099
 12 H s       :     0.947616  s :     0.947616
      pz      :     0.000004  p :    -0.000182
      px      :    -0.000126
      py      :    -0.000060


                     *******************************
                     * LOEWDIN POPULATION ANALYSIS *
                     *******************************

-------------------------------------------
LOEWDIN ATOMIC CHARGES AND SPIN POPULATIONS
-------------------------------------------
   0 C :   -0.012183   -0.004788
   1 C :   -0.063575   -0.034058
   2 C :    0.023458   -0.001624
   3 C :   -0.070826   -0.019764
   4 C :   -0.012910   -0.001242
   5 C :   -0.059157    0.007378
   6 H :    0.037974   -0.002279
   7 H :    0.038789    0.000532
   8 H :    0.032562    0.005050
   9 H :    0.037773   -0.001856
  10 H :    0.032765    0.000164
  11 O :   -0.014445   -0.882302
  12 H :    0.029776    0.934788

----------------------------------------------------
LOEWDIN REDUCED ORBITAL CHARGES AND SPIN POPULATIONS
----------------------------------------------------
CHARGE
  0 C s       :     2.858190  s :     2.858190
      pz      :     0.949245  p :     3.061519
      px      :     1.054237
      py      :     1.058036
      dz2     :     0.005973  d :     0.092473
      dxz     :     0.007211
      dyz     :     0.013879
      dx2y2   :     0.031809
      dxy     :     0.033601
  1 C s       :     2.856735  s :     2.856735
      pz      :     1.039556  p :     3.119682
      px      :     1.027411
      py      :     1.052716
      dz2     :     0.006433  d :     0.087158
      dxz     :     0.006070
      dyz     :     0.011109
      dx2y2   :     0.027156
      dxy     :     0.036389
  2 C s       :     2.849363  s :     2.849363
      pz      :     0.948649  p :     2.957769
      px      :     1.099777
      py      :     0.909342
      dz2     :     0.012102  d :     0.169410
      dxz     :     0.015361
      dyz     :     0.037068
      dx2y2   :     0.061595
      dxy     :     0.043285
  3 C s       :     2.858549  s :     2.858549
      pz      :     1.044554  p :     3.125172
      px      :     1.022755
      py      :     1.057863
      dz2     :     0.006440  d :     0.087106
      dxz     :     0.006400
      dyz     :     0.010706
      dx2y2   :     0.027826
      dxy     :     0.035734
  4 C s       :     2.858193  s :     2.858193
      pz      :     0.948911  p :     3.062206
      px      :     1.053699
      py      :     1.059595
      dz2     :     0.005996  d :     0.092511
      dxz     :     0.006834
      dyz     :     0.014321
      dx2y2   :     0.032559
      dxy     :     0.032802
  5 C s       :     2.855801  s :     2.855801
      pz      :     1.008552  p :     3.113837
      px      :     1.063761
      py      :     1.041524
      dz2     :     0.006086  d :     0.089518
      dxz     :     0.013066
      dyz     :     0.004154
      dx2y2   :     0.035272
      dxy     :     0.030941
  6 H s       :     0.895623  s :     0.895623
      pz      :     0.013387  p :     0.066403
      px      :     0.033864
      py      :     0.019153
  7 H s       :     0.892082  s :     0.892082
      pz      :     0.015770  p :     0.069129
      px      :     0.034976
      py      :     0.018383
  8 H s       :     0.898218  s :     0.898218
      pz      :     0.015787  p :     0.069220
      px      :     0.034124
      py      :     0.019309
  9 H s       :     0.895828  s :     0.895828
      pz      :     0.013400  p :     0.066399
      px      :     0.035168
      py      :     0.017831
 10 H s       :     0.899588  s :     0.899588
      pz      :     0.015041  p :     0.067646
      px      :     0.010804
      py      :     0.041801
 11 O s       :     3.652679  s :     3.652679
      pz      :     1.836821  p :     4.342109
      px      :     1.056966
      py      :     1.448322
      dz2     :     0.002846  d :     0.019657
      dxz     :     0.000037
      dyz     :     0.004079
      dx2y2   :     0.008690
      dxy     :     0.004006
 12 H s       :     0.969412  s :     0.969412
      pz      :     0.000032  p :     0.000812
      px      :     0.000524
      py      :     0.000256

SPIN
  0 C s       :    -0.001075  s :    -0.001075
      pz      :    -0.000376  p :    -0.003486
      px      :    -0.000003
      py      :    -0.003108
      dz2     :    -0.000023  d :    -0.000227
      dxz     :     0.000081
      dyz     :     0.000182
      dx2y2   :     0.000022
      dxy     :    -0.000488
  1 C s       :    -0.008768  s :    -0.008768
      pz      :     0.002254  p :    -0.025166
      px      :    -0.013503
      py      :    -0.013918
      dz2     :    -0.000090  d :    -0.000124
      dxz     :    -0.000119
      dyz     :    -0.000033
      dx2y2   :     0.000044
      dxy     :     0.000074
  2 C s       :     0.005610  s :     0.005610
      pz      :     0.000364  p :     0.015512
      px      :    -0.003227
      py      :     0.018376
      dz2     :    -0.000377  d :    -0.022745
      dxz     :    -0.000089
      dyz     :     0.000710
      dx2y2   :    -0.000933
      dxy     :    -0.022056
  3 C s       :    -0.004871  s :    -0.004871
      pz      :     0.004048  p :    -0.015178
      px      :    -0.013178
      py      :    -0.006048
      dz2     :    -0.000070  d :     0.000285
      dxz     :    -0.000121
      dyz     :    -0.000027
      dx2y2   :     0.000408
      dxy     :     0.000095
  4 C s       :    -0.000288  s :    -0.000288
      pz      :    -0.000329  p :    -0.000813
      px      :    -0.000091
      py      :    -0.000393
      dz2     :    -0.000009  d :    -0.000142
      dxz     :     0.000072
      dyz     :     0.000226
      dx2y2   :    -0.000006
      dxy     :    -0.000424
  5 C s       :     0.000340  s :     0.000340
      pz      :     0.006910  p :     0.007160
      px      :     0.000050
      py      :     0.000201
      dz2     :    -0.000021  d :    -0.000123
      dxz     :     0.000030
      dyz     :    -0.000019
      dx2y2   :     0.000055
      dxy     :    -0.000167
  6 H s       :    -0.002212  s :    -0.002212
      pz      :    -0.000018  p :    -0.000067
      px      :     0.000011
      py      :    -0.000059
  7 H s       :     0.000881  s :     0.000881
      pz      :     0.000125  p :    -0.000348
      px      :    -0.000577
      py      :     0.000104
  8 H s       :     0.003950  s :     0.003950
      pz      :     0.000173  p :     0.001100
      px      :     0.000128
      py      :     0.000799
  9 H s       :    -0.001870  s :    -0.001870
      pz      :    -0.000016  p :     0.000015
      px      :     0.000022
      py      :     0.000009
 10 H s       :    -0.000082  s :    -0.000082
      pz      :     0.000196  p :     0.000246
      px      :     0.000021
      py      :     0.000030
 11 O s       :    -0.009598  s :    -0.009598
      pz      :    -0.014224  p :    -0.872901
      px      :    -0.841931
      py      :    -0.016746
      dz2     :     0.000073  d :     0.000196
      dxz     :    -0.000002
      dyz     :    -0.000000
      dx2y2   :     0.000023
      dxy     :     0.000104
 12 H s       :     0.935152  s :     0.935152
      pz      :     0.000004  p :    -0.000364
      px      :    -0.000263
      py      :    -0.000105


                      *****************************
                      * MAYER POPULATION ANALYSIS *
                      *****************************

  NA   - Mulliken gross atomic population
  ZA   - Total nuclear charge
  QA   - Mulliken gross atomic charge
  VA   - Mayer's total valence
  BVA  - Mayer's bonded valence
  FA   - Mayer's free valence

  ATOM       NA         ZA         QA         VA         BVA        FA
  0 C      6.0080     6.0000    -0.0080     3.8830     3.8829     0.0000
  1 C      6.0690     6.0000    -0.0690     3.8890     3.8868     0.0021
  2 C      5.8061     6.0000     0.1939     3.9350     3.9321     0.0029
  3 C      6.0768     6.0000    -0.0768     3.8830     3.8814     0.0016
  4 C      6.0108     6.0000    -0.0108     3.8898     3.8898     0.0000
  5 C      6.0321     6.0000    -0.0321     3.8557     3.8556     0.0001
  6 H      0.9695     1.0000     0.0305     0.9851     0.9851     0.0000
  7 H      0.9729     1.0000     0.0271     0.9951     0.9951     0.0000
  8 H      0.9857     1.0000     0.0143     1.0012     1.0011     0.0001
  9 H      0.9711     1.0000     0.0289     0.9849     0.9849     0.0000
 10 H      0.9767     1.0000     0.0233     0.9853     0.9853     0.0000
 11 O      8.1492     8.0000    -0.1492     2.1696     1.4040     0.7656
 12 H      0.9721     1.0000     0.0279     1.0038     0.1014     0.9024

  Mayer bond orders larger than 0.1
B(  0-C ,  1-C ) :   1.4058 B(  0-C ,  5-C ) :   1.3910 B(  0-C ,  6-H ) :   0.9855 
B(  1-C ,  2-C ) :   1.3351 B(  1-C ,  7-H ) :   0.9922 B(  2-C ,  3-C ) :   1.3343 
B(  2-C , 11-O ) :   1.1667 B(  3-C ,  4-C ) :   1.3968 B(  3-C ,  8-H ) :   0.9920 
B(  4-C ,  5-C ) :   1.4020 B(  4-C ,  9-H ) :   0.9855 B(  5-C , 10-H ) :   0.9916 


-------
TIMINGS
-------

Total SCF time: 0 days 0 hours 3 min 17 sec 

Total time                  ....     197.970 sec
Sum of individual times     ....     197.763 sec  ( 99.9%)

Fock matrix formation       ....     158.439 sec  ( 80.0%)
  Split-RI-J                ....      12.428 sec  (  7.8% of F)
  Chain of spheres X        ....     132.056 sec  ( 83.3% of F)
  COS-X 1 center corr.      ....       0.000 sec  (  0.0% of F)
  XC integration            ....      13.882 sec  (  8.8% of F)
    Basis function eval.    ....       5.209 sec  ( 37.5% of XC)
    Density eval.           ....       2.121 sec  ( 15.3% of XC)
    XC-Functional eval.     ....       2.146 sec  ( 15.5% of XC)
    XC-Potential eval.      ....       4.241 sec  ( 30.6% of XC)
Diagonalization             ....       0.215 sec  (  0.1%)
Density matrix formation    ....       0.012 sec  (  0.0%)
Population analysis         ....       0.009 sec  (  0.0%)
Initial guess               ....       0.516 sec  (  0.3%)
Orbital Transformation      ....       0.000 sec  (  0.0%)
Orbital Orthonormalization  ....       0.000 sec  (  0.0%)
DIIS solution               ....       0.054 sec  (  0.0%)
Grid generation             ....       2.232 sec  (  1.1%)
SCF Stability Analysis      ....      36.286 sec  ( 18.3%)
------------------------------------------------------------------------------
                        ORCA TD-DFT/TDA CALCULATION
------------------------------------------------------------------------------

Input orbitals are from        ... /scratch/ch1tk/orca.15422/wB97XD3_def2-SVP_toluene_S0_TDA6S_2-40.gbw
CI-vector output               ... /scratch/ch1tk/orca.15422/wB97XD3_def2-SVP_toluene_S0_TDA6S_2-40.cis
Tamm-Dancoff approximation     ... operative
CIS-Integral strategy          ... AO-integrals
Integral handling              ... AO integral Direct
Max. core memory used          ... 512 MB
Reference state                ... UHF
Number of operators            ... 2
Orbital ranges used for CIS calculation:
 Operator 0:  Orbitals   7... 24  to  25...127
 Operator 1:  Orbitals   7... 24  to  25...127
XAS localization array:
 Operator 0:  Orbitals  -1... -1
 Operator 1:  Orbitals  -1... -1
-------------------
XC-INTEGRATION GRID
-------------------

General Integration Accuracy     IntAcc      ...  3.670
Radial Grid Type                 RadialGrid  ... Gauss-Chebyshev
Angular Grid (max. acc.)         AngularGrid ... Lebedev-50
Angular grid pruning method      GridPruning ... 3 (G Style)
Weight generation scheme         WeightScheme... Becke
Basis function cutoff            BFCut       ...    1.0000e-10
Integration weight cutoff        WCut        ...    1.0000e-14
Grids for H and He will be reduced by one unit

# of grid points (after initial pruning)     ...   7582 (   0.0 sec)
# of grid points (after weights+screening)   ...   7157 (   0.0 sec)
nearest neighbour list constructed           ...    0.0 sec
Grid point re-assignment to atoms done       ...    0.0 sec
Grid point division into batches done        ...    0.0 sec
Reduced shell lists constructed in    0.1 sec

Total number of grid points                  ...     7157
Total number of batches                      ...      117
Average number of points per batch           ...       61
Average number of grid points per atom       ...      551
Average number of shells per batch           ...    46.18 (76.96%)
Average number of basis functions per batch  ...    98.70 (77.11%)
Average number of large shells per batch     ...    37.53 (81.28%)
Average number of large basis fcns per batch ...    79.21 (80.25%)
Maximum spatial batch extension              ...  17.81, 15.26, 30.56 au
Average spatial batch extension              ...   4.60,  4.30,  7.15 au

---------------------
COSX-INTEGRATION GRID
---------------------

General Integration Accuracy     IntAcc      ...  2.670
Radial Grid Type                 RadialGrid  ... Gauss-Chebyshev
Angular Grid (max. acc.)         AngularGrid ... Lebedev-50
Angular grid pruning method      GridPruning ... 3 (G Style)
Weight generation scheme         WeightScheme... Becke
Basis function cutoff            BFCut       ...    1.0000e-10
Integration weight cutoff        WCut        ...    1.0000e-14
Grids for H and He will be reduced by one unit

# of grid points (after initial pruning)     ...   4338 (   0.0 sec)
# of grid points (after weights+screening)   ...   4111 (   0.0 sec)
nearest neighbour list constructed           ...    0.0 sec
Grid point re-assignment to atoms done       ...    0.0 sec
Grid point division into batches done        ...    0.0 sec
Reduced shell lists constructed in    0.1 sec

Total number of grid points                  ...     4111
Total number of batches                      ...       72
Average number of points per batch           ...       57
Average number of grid points per atom       ...      316
Average number of shells per batch           ...    46.89 (78.15%)
Average number of basis functions per batch  ...   100.81 (78.76%)
Average number of large shells per batch     ...    38.25 (81.57%)
Average number of large basis fcns per batch ...    81.12 (80.47%)
Maximum spatial batch extension              ...  14.71, 12.90, 29.42 au
Average spatial batch extension              ...   4.96,  4.50,  7.21 au


---------------
TD-DFT XC SETUP
---------------

DFT calculation                         ... on
Name of the grid file                   ... /scratch/ch1tk/orca.15422/wB97XD3_def2-SVP_toluene_S0_TDA6S_2-40.grid_cis.tmp
Exchange functional (SCF)               ... WB97X-D3
Exchange functional (TD-DFT)            ... WB97X-D3
Correlation functional (SCF)            ... WB97X-D3
Correlation functional (TD-DFT)         ... WB97X-D3
Hybrid DFT                              ... on
   Exchange mixing (SCF)                ...  0.196
   Exchange mixing (TD-DFT)             ...  0.196
   GGA exch. scaling(SCF)               ...  0.000
   GGA exch. scaling (TD-DFT)           ...  0.000
   GGA corr. scaling (SCF)              ...  1.000
   GGA corr. scaling (TD-DFT)           ...  1.000
Range-Separated Exchange                ... on
   Range Range separation parameter mu  .... 0.250
   Max. amount of RS exchange (SCF)     ...  0.804
   Max. amount of RS exchange (TD-DFT)  ...  0.804

Building densities             ... done
Calculating rho(r) on the grid ... done
Building xc-kernel on the grid ... done
                    *** TD-DFT CALCULATION INITIALIZED ***


------------------------
DAVIDSON-DIAGONALIZATION
------------------------

Dimension of the eigenvalue problem            ...   3708
Number of roots to be determined               ...      6
Maximum size of the expansion space            ...     60
Convergence tolerance for the residual         ...    1.000e-06
Convergence tolerance for the energies         ...    1.000e-06
Orthogonality tolerance                        ...    1.000e-14
Level Shift                                    ...    0.000e+00
Constructing the preconditioner                ... o.k.
Building the initial guess                     ... o.k.
Number of trial vectors determined             ...     60


                       ****Iteration    0****

   Memory handling for direct AO based CIS:
   Memory per vector needed      ...     1 MB
   Memory needed                 ...    23 MB
   Memory available              ...   512 MB
   Number of vectors per batch   ...   391
   Number of batches             ...     1
   Time for densities:     0.022
   Time for RI-J (Direct):     4.519
   Time for K (COSX):     3.888
   Time for XC-Integration:     2.451
   Time for Sigma-Completion:     0.111
   Size of expansion space: 18
   Lowest Energy          :    -0.002540642606
   Maximum Energy change  :     0.169263984218 (vector 5)
   Maximum residual norm  :     0.005417653426

                       ****Iteration    1****
   Time for densities:     0.007
   Time for RI-J (Direct):     1.641
   Time for K (COSX):     3.213
   Time for XC-Integration:     0.843
   Time for Sigma-Completion:     0.036
   Size of expansion space: 24
   Lowest Energy          :    -0.005976036628
   Maximum Energy change  :     0.010535615806 (vector 4)
   Maximum residual norm  :     0.001319014629

                       ****Iteration    2****
   Time for densities:     0.007
   Time for RI-J (Direct):     1.623
   Time for K (COSX):     3.176
   Time for XC-Integration:     0.856
   Time for Sigma-Completion:     0.036
   Size of expansion space: 30
   Lowest Energy          :    -0.006004948517
   Maximum Energy change  :     0.005598861400 (vector 3)
   Maximum residual norm  :     0.001512302020

                       ****Iteration    3****
   Time for densities:     0.007
   Time for RI-J (Direct):     1.625
   Time for K (COSX):     3.160
   Time for XC-Integration:     0.866
   Time for Sigma-Completion:     0.036
   Size of expansion space: 36
   Lowest Energy          :    -0.006005428767
   Maximum Energy change  :     0.003987887178 (vector 3)
   Maximum residual norm  :     0.000359661152

                       ****Iteration    4****
   Time for densities:     0.007
   Time for RI-J (Direct):     1.622
   Time for K (COSX):     3.170
   Time for XC-Integration:     0.870
   Time for Sigma-Completion:     0.036
   Size of expansion space: 42
   Lowest Energy          :    -0.006005437315
   Maximum Energy change  :     0.000682021916 (vector 3)
   Maximum residual norm  :     0.000079033711

                       ****Iteration    5****
   Time for densities:     0.007
   Time for RI-J (Direct):     1.627
   Time for K (COSX):     3.174
   Time for XC-Integration:     0.874
   Time for Sigma-Completion:     0.036
   Size of expansion space: 48
   Lowest Energy          :    -0.006005437500
   Maximum Energy change  :     0.000103552954 (vector 3)
   Maximum residual norm  :     0.000007717757

                       ****Iteration    6****
   Time for densities:     0.008
   Time for RI-J (Direct):     1.627
   Time for K (COSX):     3.087
   Time for XC-Integration:     0.840
   Time for Sigma-Completion:     0.035
   Size of expansion space: 54
   Lowest Energy          :    -0.006005437505
   Maximum Energy change  :     0.000007940612 (vector 3)
   Maximum residual norm  :     0.000000616570

      *** CONVERGENCE OF RESIDUAL NORM REACHED ***

Storing the converged CI vectors               ... /scratch/ch1tk/orca.15422/wB97XD3_def2-SVP_toluene_S0_TDA6S_2-40.cis1

                 *** DAVIDSON DONE ***

Total time for solving the CIS problem:    45.305sec

-------------------------
TD-DFT/TDA EXCITED STATES
-------------------------

the weight of the individual excitations are printed if larger than 0.01

STATE  1:  E=  -0.006005 au     -0.163 eV    -1318.0 cm**-1
    18a ->  25a  :     0.037270 (c= -0.19305456)
    21a ->  25a  :     0.161590 (c=  0.40198234)
    24a ->  25a  :     0.796813 (c= -0.89264367)

STATE  2:  E=   0.105348 au      2.867 eV    23121.3 cm**-1
    23a ->  25a  :     0.998457 (c=  0.99922802)

STATE  3:  E=   0.137296 au      3.736 eV    30132.9 cm**-1
    18a ->  25a  :     0.356716 (c= -0.59725701)
    21a ->  25a  :     0.449769 (c=  0.67064801)
    24a ->  25a  :     0.189110 (c=  0.43486787)

STATE  4:  E=   0.142486 au      3.877 eV    31272.2 cm**-1
    13a ->  25a  :     0.017590 (c=  0.13262910)
    15a ->  25a  :     0.104646 (c=  0.32349085)
    16a ->  25a  :     0.131410 (c= -0.36250580)
    19a ->  25a  :     0.088836 (c= -0.29805337)
    22a ->  25a  :     0.637754 (c=  0.79859517)

STATE  5:  E=   0.155066 au      4.220 eV    34033.0 cm**-1
    23a ->  26a  :     0.155717 (c=  0.39461033)
    24a ->  27a  :     0.330185 (c= -0.57461702)
    21b ->  33b  :     0.010499 (c= -0.10246476)
    23b ->  26b  :     0.153880 (c=  0.39227603)
    24b ->  27b  :     0.308678 (c= -0.55558796)

STATE  6:  E=   0.162235 au      4.415 eV    35606.5 cm**-1
    24a ->  26a  :     0.536471 (c=  0.73244158)
    24b ->  26b  :     0.427576 (c=  0.65389312)


-----------------------------
TD-DFT/TDA-EXCITATION SPECTRA
-----------------------------

Center of mass = (  0.0099,  0.0515,  0.0000)
Calculating the Dipole integrals                  ... done
Transforming integrals                            ... done
Calculating the Linear Momentum integrals         ... done
Transforming integrals                            ... done
Calculating angular momentum integrals            ... done
Transforming integrals                            ... done

-----------------------------------------------------------------------------
         ABSORPTION SPECTRUM VIA TRANSITION ELECTRIC DIPOLE MOMENTS
-----------------------------------------------------------------------------
State   Energy  Wavelength   fosc         T2         TX        TY        TZ  
        (cm-1)    (nm)                  (au**2)     (au)      (au)      (au) 
-----------------------------------------------------------------------------
   1   -1318.0   -7587.0   -0.000000000   0.00000   0.00000   0.00003   0.00018
   2   23121.3    432.5   0.000036587   0.00052   0.00001   0.00001  -0.02282
   3   30132.9    331.9   0.000000138   0.00000  -0.00008  -0.00009   0.00122
   4   31272.2    319.8   0.049696729   0.52317   0.55816   0.46004  -0.00000
   5   34033.0    293.8   0.000162820   0.00158  -0.00297   0.03957   0.00000
   6   35606.5    280.8   0.000385995   0.00357  -0.05898  -0.00949  -0.00000

-----------------------------------------------------------------------------
         ABSORPTION SPECTRUM VIA TRANSITION VELOCITY DIPOLE MOMENTS
-----------------------------------------------------------------------------
State   Energy  Wavelength   fosc         P2         PX        PY        PZ  
        (cm-1)    (nm)                  (au**2)     (au)      (au)      (au) 
-----------------------------------------------------------------------------
   1   -1318.0   -7587.0   -0.000436291   0.00000   0.00000   0.00000   0.00198
   2   23121.3    432.5   0.001268104   0.00020   0.00000   0.00000  -0.01416
   3   30132.9    331.9   0.000036757   0.00001   0.00000   0.00001   0.00275
   4   31272.2    319.8   0.031958850   0.00683  -0.03148  -0.07642   0.00000
   5   34033.0    293.8   0.000025156   0.00001   0.00007   0.00242   0.00000
   6   35606.5    280.8   0.000038660   0.00001  -0.00181   0.00248  -0.00000

-------------------------------------------------------------------
                             CD SPECTRUM
-------------------------------------------------------------------
State   Energy Wavelength       R         MX        MY        MZ   
        (cm-1)   (nm)       (1e40*cgs)   (au)      (au)      (au)  
-------------------------------------------------------------------
   1   -1318.0   -7587.0      0.00492  -0.04271   0.37367  -0.00000
   2   23121.3    432.5      0.00010   0.01923   0.00456   0.00000
   3   30132.9    331.9     -0.00868  -0.02180   0.21480   0.00007
   4   31272.2    319.8      0.00552  -0.00001   0.00003  -0.40636
   5   34033.0    293.8      0.00007   0.00000   0.00000   0.00795
   6   35606.5    280.8      0.00002  -0.00000   0.00000  -0.02230

Total run time:       45.911 sec

           *** ORCA-CIS/TD-DFT FINISHED WITHOUT ERROR ***

-----------------------
CIS/TD-DFT TOTAL ENERGY
-----------------------

    E(SCF)  =   -306.977622550 Eh
    DE(CIS) =     -0.006005438 Eh (Root  1)
    ----------------------------- ---------
    E(tot)  =   -306.983627988 Eh



-------------------------------------------------------------------------------
                          DFT DISPERSION CORRECTION                            
                                                                               
                              DFTD3 V3.1  Rev 1                                
                              USING zero damping                               
-------------------------------------------------------------------------------
The omegaB97X-D3 functional is recognized. Fit by Chai et al.
Active option DFTDOPT                   ...         3   

molecular C6(AA) [au] = 2038.037044 


            DFT-D V3
 parameters
 s6 scaling factor         :     1.0000 
 rs6 scaling factor        :     1.2810 
 s8 scaling factor         :     1.0000 
 rs8 scaling factor        :     1.0940 
 Damping factor alpha6     :    14.0000 
 Damping factor alpha8     :    16.0000 
 ad hoc parameters k1-k3   :    16.0000     1.3333    -4.0000 

 Edisp/kcal,au: -1.994721666149  -0.003178790976 
 E6   /kcal   :  -0.808535299 
 E8   /kcal   :  -1.186186368 
 % E8         :  59.466259762 

-------------------------   ----------------
Dispersion correction           -0.003178791
-------------------------   ----------------


-------------------------   --------------------
FINAL SINGLE POINT ENERGY      -306.980801341459
-------------------------   --------------------


                            ***************************************
                            *     ORCA property calculations      *
                            ***************************************

                                    ---------------------
                                    Active property flags
                                    ---------------------
   (+) Dipole Moment


------------------------------------------------------------------------------
                       ORCA ELECTRIC PROPERTIES CALCULATION
------------------------------------------------------------------------------

Dipole Moment Calculation                       ... on
Quadrupole Moment Calculation                   ... off
Polarizability Calculation                      ... off
GBWName                                         ... /scratch/ch1tk/orca.15422/wB97XD3_def2-SVP_toluene_S0_TDA6S_2-40.gbw
Electron density file                           ... /scratch/ch1tk/orca.15422/wB97XD3_def2-SVP_toluene_S0_TDA6S_2-40.scfp.tmp
The origin for moment calculation is the CENTER OF MASS  = ( 0.009889,  0.051548  0.000000)

-------------
DIPOLE MOMENT
-------------
                                X             Y             Z
Electronic contribution:     -1.87947       1.08034      -0.00000
Nuclear contribution   :      2.01126      -1.52415       0.00000
                        -----------------------------------------
Total Dipole Moment    :      0.13179      -0.44381      -0.00000
                        -----------------------------------------
Magnitude (a.u.)       :      0.46297
Magnitude (Debye)      :      1.17677


Timings for individual modules:

Sum of individual times         ...      244.211 sec (=   4.070 min)
GTO integral calculation        ...        0.261 sec (=   0.004 min)   0.1 %
SCF iterations                  ...      198.005 sec (=   3.300 min)  81.1 %
CIS module                      ...       45.945 sec (=   0.766 min)  18.8 %
                             ****ORCA TERMINATED NORMALLY****
TOTAL RUN TIME: 0 days 0 hours 4 minutes 4 seconds 455 msec
