
                                 *****************
                                 * O   R   C   A *
                                 *****************

           --- An Ab Initio, DFT and Semiempirical electronic structure package ---

                  #######################################################
                  #                        -***-                        #
                  #  Department of molecular theory and spectroscopy    #
                  #              Directorship: Frank Neese              #
                  # Max Planck Institute for Chemical Energy Conversion #
                  #                  D-45470 Muelheim/Ruhr              #
                  #                       Germany                       #
                  #                                                     #
                  #                  All rights reserved                #
                  #                        -***-                        #
                  #######################################################


                         Program Version 4.0.1.2 - RELEASE -


 With contributions from (in alphabetic order):
   Daniel Aravena         : Magnetic Properties
   Michael Atanasov       : Ab Initio Ligand Field Theory
   Ute Becker             : Parallelization
   Martin Brehm           : Molecular dynamics
   Dmytro Bykov           : SCF Hessian
   Vijay G. Chilkuri      : MRCI spin determinant printing
   Dipayan Datta          : RHF DLPNO-CCSD density
   Achintya Kumar Dutta   : EOM-CC, STEOM-CC
   Dmitry Ganyushin       : Spin-Orbit,Spin-Spin,Magnetic field MRCI
   Yang Guo               : DLPNO-NEVPT2, CIM, IAO-localization
   Andreas Hansen         : Spin unrestricted coupled pair/coupled cluster methods
   Lee Huntington         : MR-EOM, pCC
   Robert Izsak           : Overlap fitted RIJCOSX, COSX-SCS-MP3, EOM
   Christian Kollmar      : KDIIS, OOCD, Brueckner-CCSD(T), CCSD density
   Simone Kossmann        : Meta GGA functionals, TD-DFT gradient, OOMP2, MP2 Hessian
   Martin Krupicka        : AUTO-CI
   Dagmar Lenk            : GEPOL surface
   Dimitrios Liakos       : Extrapolation schemes; parallel MDCI
   Dimitrios Manganas     : ROCIS; embedding schemes
   Dimitrios Pantazis     : SARC Basis sets
   Taras Petrenko         : DFT Hessian,TD-DFT gradient, ASA, ECA, R-Raman, ABS, FL, XAS/XES, NRVS
   Peter Pinski           : DLPNO-MP2
   Christoph Reimann      : Effective Core Potentials
   Marius Retegan         : Local ZFS, SOC
   Christoph Riplinger    : Optimizer, TS searches, QM/MM, DLPNO-CCSD(T), (RO)-DLPNO pert. Triples
   Tobias Risthaus        : Range-separated hybrids, TD-DFT gradient, RPA, STAB
   Michael Roemelt        : Restricted open shell CIS
   Masaaki Saitow         : Open-shell DLPNO
   Barbara Sandhoefer     : DKH picture change effects
   Kantharuban Sivalingam : CASSCF convergence, NEVPT2, FIC-MRCI
   Georgi Stoychev        : AutoAux
   Boris Wezisla          : Elementary symmetry handling
   Frank Wennmohs         : Technical directorship


 We gratefully acknowledge several colleagues who have allowed us to
 interface, adapt or use parts of their codes:
   Stefan Grimme, W. Hujo, H. Kruse,             : VdW corrections, initial TS optimization,
                  C. Bannwarth                     DFT functionals, gCP, sTDA/sTD-DF
   Ed Valeev                                     : LibInt (2-el integral package), F12 methods
   Garnet Chan, S. Sharma, J. Yang, R. Olivares  : DMRG
   Ulf Ekstrom                                   : XCFun DFT Library
   Mihaly Kallay                                 : mrcc  (arbitrary order and MRCC methods)
   Andreas Klamt, Michael Diedenhofen            : otool_cosmo (COSMO solvation model)
   Jiri Pittner, Ondrej Demel                    : Mk-CCSD
   Frank Weinhold                                : gennbo (NPA and NBO analysis)
   Christopher J. Cramer and Donald G. Truhlar   : smd solvation model


 Your calculation uses the libint2 library for the computation of 2-el integrals
 For citations please refer to: http://libint.valeyev.net

 This ORCA versions uses:
   CBLAS   interface :  Fast vector & matrix operations
   LAPACKE interface :  Fast linear algebra routines
   SCALAPACK package :  Parallel linear algebra routines


Your calculation utilizes the atom-pairwise dispersion correction
with the zero-damping scheme (D30)
Cite in your paper:
S.Grimme, J.Antony, S.Ehrlich and H.Krieg, J.Chem.Phys., 132, (2010), 154104 
   

XCFun DFT library Copyright 2009-2010 Ulf Ekstrom and contributors.
See http://admol.org/xcfun for more information. This is free soft-
ware; see the source code for copying conditions. There is ABSOLUTELY
NO WARRANTY; not even for MERCHANTABILITY or FITNESS FOR A PARTICULAR
PURPOSE. For details see the documentation. Scientific users of this 
library should cite U. Ekstrom, L. Visscher, R. Bast, A. J. Thorvald-
sen and K. Ruud; J.Chem.Theor.Comp. 2010, DOI: 10.1021/ct100117s
XCFun Version 0.99 
Your calculation utilizes the basis: def2-SVP
   F. Weigend and R. Ahlrichs, Phys. Chem. Chem. Phys. 7, 3297 (2005).

Your calculation utilizes the auxiliary basis: def2/JK
   H-Ba, Hf-Rn: F. Weigend, J. Comput. Chem. 29, 167 (2008).

WARNING: Overwriting auxiliary coulomb basis with /JK basis!
================================================================================
                                        WARNINGS
                       Please study these warnings very carefully!
================================================================================

Warning: TCutStore was < 0. Adjusted to Thresh (uncritical)
INFO   : Checking CIS options ...

WARNING: CIS/ROCIS methods need fully converged wavefunctions
  ===> : Setting SCFConvForced true
         You can overwrite this default with %scf ConvForced false 


INFO   : the flag for use of LIBINT has been found!

================================================================================
                                       INPUT FILE
================================================================================
NAME = /scratch/ch1tk/orca.15473/wB97XD3_def2-SVP_toluene_S0_TDA6S_3-00.inp
|  1> ! UKS wB97X-D3 def2-SVP RIJCOSX def2/JK SlowConv
|  2>  
|  3> 
|  4> %scf
|  5> 	MaxIter		500
|  6> 	STABPerform	True
|  7> end
|  8> 
|  9> %tddft
| 10> 	NRoots 6
| 11> end
| 12> 
| 13> * xyz 0 1
| 14>  C                 -1.18578599   -1.17301779    0.00000000
| 15>  C                 -1.22528521    0.21672485    0.00000000
| 16>  C                 -0.03021307    0.94488843    0.00000000
| 17>  C                  1.19387265    0.26897053    0.00000000
| 18>  C                  1.21998389   -1.12396818    0.00000000
| 19>  C                  0.03366349   -1.85245673    0.00000000
| 20>  H                 -2.12142076   -1.73821028    0.00000000
| 21>  H                 -2.17044776    0.76362561    0.00000000
| 22>  H                  2.12866956    0.83920121    0.00000000
| 23>  H                  2.18175171   -1.64285600    0.00000000
| 24>  H                  0.05704252   -2.94432740    0.00000000
| 25>  O                 -0.11105943    2.29589847    0.00000000
| 26>  H                  2.65456001    3.45837389    0.00000000
| 27> end
| 28> 
| 29>                          ****END OF INPUT****
================================================================================

                       ****************************
                       * Single Point Calculation *
                       ****************************

---------------------------------
CARTESIAN COORDINATES (ANGSTROEM)
---------------------------------
  C     -1.185786   -1.173018    0.000000
  C     -1.225285    0.216725    0.000000
  C     -0.030213    0.944888    0.000000
  C      1.193873    0.268971    0.000000
  C      1.219984   -1.123968    0.000000
  C      0.033663   -1.852457    0.000000
  H     -2.121421   -1.738210    0.000000
  H     -2.170448    0.763626    0.000000
  H      2.128670    0.839201    0.000000
  H      2.181752   -1.642856    0.000000
  H      0.057043   -2.944327    0.000000
  O     -0.111059    2.295898    0.000000
  H      2.654560    3.458374    0.000000

----------------------------
CARTESIAN COORDINATES (A.U.)
----------------------------
  NO LB      ZA    FRAG     MASS         X           Y           Z
   0 C     6.0000    0    12.011   -2.240811   -2.216682    0.000000
   1 C     6.0000    0    12.011   -2.315453    0.409551    0.000000
   2 C     6.0000    0    12.011   -0.057094    1.785580    0.000000
   3 C     6.0000    0    12.011    2.256092    0.508281    0.000000
   4 C     6.0000    0    12.011    2.305435   -2.123992    0.000000
   5 C     6.0000    0    12.011    0.063615   -3.500636    0.000000
   6 H     1.0000    0     1.008   -4.008904   -3.284741    0.000000
   7 H     1.0000    0     1.008   -4.101552    1.443043    0.000000
   8 H     1.0000    0     1.008    4.022602    1.585860    0.000000
   9 H     1.0000    0     1.008    4.122913   -3.104548    0.000000
  10 H     1.0000    0     1.008    0.107795   -5.563972    0.000000
  11 O     8.0000    0    15.999   -0.209872    4.338619    0.000000
  12 H     1.0000    0     1.008    5.016391    6.535380    0.000000

--------------------------------
INTERNAL COORDINATES (ANGSTROEM)
--------------------------------
 C      0   0   0     0.000000000000     0.00000000     0.00000000
 C      1   0   0     1.390303849457     0.00000000     0.00000000
 C      2   1   0     1.399435464408   119.72614521     0.00000000
 C      3   2   1     1.398302848974   119.73915203     0.00000000
 C      4   3   2     1.393183421761   119.98059071     0.00000000
 C      5   4   3     1.392139238344   120.47909682     0.00000000
 H      1   2   3     1.093094219903   119.50705551   180.00000085
 H      2   1   3     1.091985662548   121.68304388   180.00000000
 H      4   3   2     1.094992370457   119.70992277   180.00000000
 H      5   4   3     1.092813757843   119.42141969   180.00000000
 H      6   5   4     1.092120936092   120.32638097   180.00000085
 O      3   2   1     1.353426858794   117.92958877   180.00000000
 H      9   4   3     2.671446479542   132.73656533     0.00000000

---------------------------
INTERNAL COORDINATES (A.U.)
---------------------------
 C      0   0   0     0.000000000000     0.00000000     0.00000000
 C      1   0   0     2.627293518410     0.00000000     0.00000000
 C      2   1   0     2.644549769828   119.72614521     0.00000000
 C      3   2   1     2.642409436842   119.73915203     0.00000000
 C      4   3   2     2.632735121448   119.98059071     0.00000000
 C      5   4   3     2.630761900756   120.47909682     0.00000000
 H      1   2   3     2.065648714189   119.50705551   180.00000085
 H      2   1   3     2.063553844385   121.68304388   180.00000000
 H      4   3   2     2.069235698897   119.70992277   180.00000000
 H      5   4   3     2.065118717705   119.42141969   180.00000000
 H      6   5   4     2.063809474335   120.32638097   180.00000085
 O      3   2   1     2.557606105415   117.92958877   180.00000000
 H      9   4   3     5.048302227763   132.73656533     0.00000000

---------------------
BASIS SET INFORMATION
---------------------
There are 3 groups of distinct atoms

 Group   1 Type C   : 7s4p1d contracted to 3s2p1d pattern {511/31/1}
 Group   2 Type H   : 4s1p contracted to 2s1p pattern {31/1}
 Group   3 Type O   : 7s4p1d contracted to 3s2p1d pattern {511/31/1}

Atom   0C    basis set group =>   1
Atom   1C    basis set group =>   1
Atom   2C    basis set group =>   1
Atom   3C    basis set group =>   1
Atom   4C    basis set group =>   1
Atom   5C    basis set group =>   1
Atom   6H    basis set group =>   2
Atom   7H    basis set group =>   2
Atom   8H    basis set group =>   2
Atom   9H    basis set group =>   2
Atom  10H    basis set group =>   2
Atom  11O    basis set group =>   3
Atom  12H    basis set group =>   2
-------------------------------
AUXILIARY BASIS SET INFORMATION
-------------------------------
There are 3 groups of distinct atoms

 Group   1 Type C   : 14s10p6d2f1g contracted to 10s8p5d1f1g pattern {5111111111/31111111/21111/2/1}
 Group   2 Type H   : 4s2p2d contracted to 2s2p2d pattern {31/11/11}
 Group   3 Type O   : 14s10p6d2f1g contracted to 10s8p4d2f1g pattern {5111111111/31111111/3111/11/1}

Atom   0C    basis set group =>   1
Atom   1C    basis set group =>   1
Atom   2C    basis set group =>   1
Atom   3C    basis set group =>   1
Atom   4C    basis set group =>   1
Atom   5C    basis set group =>   1
Atom   6H    basis set group =>   2
Atom   7H    basis set group =>   2
Atom   8H    basis set group =>   2
Atom   9H    basis set group =>   2
Atom  10H    basis set group =>   2
Atom  11O    basis set group =>   3
Atom  12H    basis set group =>   2
------------------------------------------------------------------------------
                           ORCA GTO INTEGRAL CALCULATION
                           -- RI-GTO INTEGRALS CHOSEN --
------------------------------------------------------------------------------

                         BASIS SET STATISTICS AND STARTUP INFO

Gaussian basis set:
 # of primitive gaussian shells          ...  114
 # of primitive gaussian functions       ...  210
 # of contracted shells                  ...   60
 # of contracted basis functions         ...  128
 Highest angular momentum                ...    2
 Maximum contraction depth               ...    5
Auxiliary gaussian basis set:
 # of primitive gaussian shells          ...  279
 # of primitive gaussian functions       ...  799
 # of contracted shells                  ...  211
 # of contracted aux-basis functions     ...  635
 Highest angular momentum                ...    4
 Maximum contraction depth               ...    5
Ratio of auxiliary to basis functions    ...  4.96
Integral package used                  ... LIBINT
 One Electron integrals                  ... done
 Ordering auxiliary basis shells         ... done
 Integral threshhold             Thresh  ...  1.000e-10
 Primitive cut-off               TCut    ...  1.000e-11
 Pre-screening matrix                    ... done
 Shell pair data                         ... 
 Ordering of the shell pairs             ... done (   0.000 sec) 1746 of 1830 pairs
 Determination of significant pairs      ... done (   0.000 sec)
 Creation of shell pair data             ... done (   0.001 sec)
 Storage of shell pair data              ... done (   0.001 sec)
 Shell pair data done in (   0.002 sec)
 Computing two index integrals           ... done
 Cholesky decomposition of the V-matrix  ... done


Timings:
 Total evaluation time                   ...   0.222 sec (  0.004 min)
 One electron matrix time                ...   0.016 sec (  0.000 min) =  7.1%
 Schwartz matrix evaluation time         ...   0.153 sec (  0.003 min) = 68.9%
 Two index repulsion integral time       ...   0.014 sec (  0.000 min) =  6.5%
 Cholesky decomposition of V             ...   0.014 sec (  0.000 min) =  6.3%
 Three index repulsion integral time     ...   0.000 sec (  0.000 min) =  0.0%

-------------------------------------------------------------------------------
                                 ORCA SCF
-------------------------------------------------------------------------------

------------
SCF SETTINGS
------------
Hamiltonian:
 Density Functional     Method          .... DFT(GTOs)
 Exchange Functional    Exchange        .... WB97X-D3
 Correlation Functional Correlation     .... WB97X-D3
 Gradients option       PostSCFGGA      .... off
 Hybrid DFT is turned on
   Fraction HF Exchange ScalHFX         ....  0.195728
   Scaling of DF-GGA-X  ScalDFX         ....  0.000000
   Scaling of DF-GGA-C  ScalDFC         ....  1.000000
   Scaling of DF-LDA-C  ScalLDAC        ....  1.000000
   Perturbative correction              ....  0.000000
 Long-range corrected/Screened/Range-Separated Hybrid DFT is turned on
   Amount of maximum screened exact exchange              ....  0.804272
   Range separation parameter mu (erf(mu*r12)/r12)        ....  0.250000
 RI-approximation to the Coulomb term is turned on
   Number of auxiliary basis functions  .... 635
   RIJ-COSX (HFX calculated with COS-X)).... on


General Settings:
 Integral files         IntName         .... /scratch/ch1tk/orca.15473/wB97XD3_def2-SVP_toluene_S0_TDA6S_3-00
 Hartree-Fock type      HFTyp           .... UHF
 Total Charge           Charge          ....    0
 Multiplicity           Mult            ....    1
 Number of Electrons    NEL             ....   50
 Basis Dimension        Dim             ....  128
 Nuclear Repulsion      ENuc            ....    266.0357170703 Eh

Convergence Acceleration:
 DIIS                   CNVDIIS         .... on
   Start iteration      DIISMaxIt       ....     0
   Startup error        DIISStart       ....  0.200000
   # of expansion vecs  DIISMaxEq       ....     5
   Bias factor          DIISBfac        ....   1.050
   Max. coefficient     DIISMaxC        ....  10.000
 Newton-Raphson         CNVNR           .... off
 SOSCF                  CNVSOSCF        .... off
 Level Shifting         CNVShift        .... on
   Level shift para.    LevelShift      ....    0.2500
   Turn off err/grad.   ShiftErr        ....    0.0000
 Zerner damping         CNVZerner       .... off
 Static damping         CNVDamp         .... on
   Fraction old density DampFac         ....    0.8500
   Max. Damping (<1)    DampMax         ....    0.9800
   Min. Damping (>=0)   DampMin         ....    0.0000
   Turn off err/grad.   DampErr         ....    0.0300
 Fernandez-Rico         CNVRico         .... off

SCF Procedure:
 Maximum # iterations   MaxIter         ....   500
 SCF integral mode      SCFMode         .... Direct
   Integral package                     .... LIBINT
 Reset frequeny         DirectResetFreq ....    20
 Integral Threshold     Thresh          ....  1.000e-10 Eh
 Primitive CutOff       TCut            ....  1.000e-11 Eh

Convergence Tolerance:
 Convergence Check Mode ConvCheckMode   .... Total+1el-Energy
 Convergence forced     ConvForced      .... 1
 Energy Change          TolE            ....  1.000e-06 Eh
 1-El. energy change                    ....  1.000e-03 Eh
 DIIS Error             TolErr          ....  1.000e-06


Diagonalization of the overlap matrix:
Smallest eigenvalue                        ... 2.793e-04
Time for diagonalization                   ...    0.004 sec
Threshold for overlap eigenvalues          ... 1.000e-08
Number of eigenvalues below threshold      ... 0
Time for construction of square roots      ...    0.001 sec
Total time needed                          ...    0.005 sec

-------------------
DFT GRID GENERATION
-------------------

General Integration Accuracy     IntAcc      ...  4.340
Radial Grid Type                 RadialGrid  ... Gauss-Chebyshev
Angular Grid (max. acc.)         AngularGrid ... Lebedev-110
Angular grid pruning method      GridPruning ... 3 (G Style)
Weight generation scheme         WeightScheme... Becke
Basis function cutoff            BFCut       ...    1.0000e-10
Integration weight cutoff        WCut        ...    1.0000e-14
Grids for H and He will be reduced by one unit

# of grid points (after initial pruning)     ...  16416 (   0.0 sec)
# of grid points (after weights+screening)   ...  15377 (   0.0 sec)
nearest neighbour list constructed           ...    0.0 sec
Grid point re-assignment to atoms done       ...    0.0 sec
Grid point division into batches done        ...    0.0 sec
Reduced shell lists constructed in    0.3 sec

Total number of grid points                  ...    15377
Total number of batches                      ...      246
Average number of points per batch           ...       62
Average number of grid points per atom       ...     1183
Average number of shells per batch           ...    43.45 (72.41%)
Average number of basis functions per batch  ...    92.32 (72.12%)
Average number of large shells per batch     ...    34.66 (79.78%)
Average number of large basis fcns per batch ...    72.92 (78.99%)
Maximum spatial batch extension              ...  22.52, 16.76, 25.60 au
Average spatial batch extension              ...   3.98,  3.57,  5.49 au

Time for grid setup =    0.301 sec

------------------------------
INITIAL GUESS: MODEL POTENTIAL
------------------------------
Loading Hartree-Fock densities                     ... done
Calculating cut-offs                               ... done
Setting up the integral package                    ... done
Initializing the effective Hamiltonian             ... done
Starting the Coulomb interaction                   ... done (   0.1 sec)
Reading the grid                                   ... done
Mapping shells                                     ... done
Starting the XC term evaluation                    ... done (   0.3 sec)
  promolecular density results
     # of electrons  =     50.000630558
     EX              =    -40.493650137
     EC              =     -1.629947760
     EX+EC           =    -42.123597898
Transforming the Hamiltonian                       ... done (   0.0 sec)
Diagonalizing the Hamiltonian                      ... done (   0.0 sec)
Back transforming the eigenvectors                 ... done (   0.0 sec)
Now organizing SCF variables                       ... done
                      ------------------
                      INITIAL GUESS DONE (   0.8 sec)
                      ------------------
--------------------
COSX GRID GENERATION
--------------------

General Integration Accuracy     IntAcc      ...  3.340
Radial Grid Type                 RadialGrid  ... Gauss-Chebyshev
Angular Grid (max. acc.)         AngularGrid ... Lebedev-50
Angular grid pruning method      GridPruning ... 3 (G Style)
Weight generation scheme         WeightScheme... Becke
Basis function cutoff            BFCut       ...    1.0000e-10
Integration weight cutoff        WCut        ...    1.0000e-14
Grids for H and He will be reduced by one unit

# of grid points (after initial pruning)     ...   5980 (   0.0 sec)
# of grid points (after weights+screening)   ...   5668 (   0.0 sec)
nearest neighbour list constructed           ...    0.0 sec
Grid point re-assignment to atoms done       ...    0.0 sec
Grid point division into batches done        ...    0.0 sec
Reduced shell lists constructed in    0.1 sec

Total number of grid points                  ...     5668
Total number of batches                      ...       95
Average number of points per batch           ...       59
Average number of grid points per atom       ...      436
Average number of shells per batch           ...    46.64 (77.73%)
Average number of basis functions per batch  ...   100.16 (78.25%)
Average number of large shells per batch     ...    38.19 (81.89%)
Average number of large basis fcns per batch ...    81.33 (81.21%)
Maximum spatial batch extension              ...  16.72, 14.62, 35.81 au
Average spatial batch extension              ...   4.86,  4.53,  7.41 au

Overlap Fitting                  UseSFitting ... on
Constructing numerical overlap ... done (      0.1 sec)
Inverting numerical overlap    ... done (      0.0 sec)
Obtaining analytic overlap     ... done (      0.0 sec)
Final contraction and storage  ... done (      0.0 sec)


General Integration Accuracy     IntAcc      ...  3.670
Radial Grid Type                 RadialGrid  ... Gauss-Chebyshev
Angular Grid (max. acc.)         AngularGrid ... Lebedev-50
Angular grid pruning method      GridPruning ... 3 (G Style)
Weight generation scheme         WeightScheme... Becke
Basis function cutoff            BFCut       ...    1.0000e-10
Integration weight cutoff        WCut        ...    1.0000e-14
Grids for H and He will be reduced by one unit

# of grid points (after initial pruning)     ...   7582 (   0.0 sec)
# of grid points (after weights+screening)   ...   7165 (   0.0 sec)
nearest neighbour list constructed           ...    0.0 sec
Grid point re-assignment to atoms done       ...    0.0 sec
Grid point division into batches done        ...    0.0 sec
Reduced shell lists constructed in    0.1 sec

Total number of grid points                  ...     7165
Total number of batches                      ...      116
Average number of points per batch           ...       61
Average number of grid points per atom       ...      551
Average number of shells per batch           ...    45.86 (76.44%)
Average number of basis functions per batch  ...    98.00 (76.56%)
Average number of large shells per batch     ...    36.79 (80.21%)
Average number of large basis fcns per batch ...    77.76 (79.35%)
Maximum spatial batch extension              ...  18.13, 15.26, 30.56 au
Average spatial batch extension              ...   4.73,  4.42,  7.30 au

Overlap Fitting                  UseSFitting ... on
Constructing numerical overlap ... done (      0.1 sec)
Inverting numerical overlap    ... done (      0.0 sec)
Obtaining analytic overlap     ... done (      0.0 sec)
Final contraction and storage  ... done (      0.0 sec)


General Integration Accuracy     IntAcc      ...  4.010
Radial Grid Type                 RadialGrid  ... Gauss-Chebyshev
Angular Grid (max. acc.)         AngularGrid ... Lebedev-110
Angular grid pruning method      GridPruning ... 3 (G Style)
Weight generation scheme         WeightScheme... Becke
Basis function cutoff            BFCut       ...    1.0000e-10
Integration weight cutoff        WCut        ...    1.0000e-14
Grids for H and He will be reduced by one unit

# of grid points (after initial pruning)     ...  14238 (   0.0 sec)
# of grid points (after weights+screening)   ...  13346 (   0.0 sec)
nearest neighbour list constructed           ...    0.0 sec
Grid point re-assignment to atoms done       ...    0.0 sec
Grid point division into batches done        ...    0.0 sec
Reduced shell lists constructed in    0.2 sec

Total number of grid points                  ...    13346
Total number of batches                      ...      214
Average number of points per batch           ...       62
Average number of grid points per atom       ...     1027
Average number of shells per batch           ...    44.01 (73.35%)
Average number of basis functions per batch  ...    93.63 (73.15%)
Average number of large shells per batch     ...    35.23 (80.06%)
Average number of large basis fcns per batch ...    74.04 (79.08%)
Maximum spatial batch extension              ...  20.85, 16.10, 31.02 au
Average spatial batch extension              ...   4.00,  3.66,  5.54 au

Overlap Fitting                  UseSFitting ... on
Constructing numerical overlap ... done (      0.1 sec)
Inverting numerical overlap    ... done (      0.0 sec)
Obtaining analytic overlap     ... done (      0.0 sec)
Final contraction and storage  ... done (      0.0 sec)

Time for X-Grid setup             =    0.787 sec
--------------
SCF ITERATIONS
--------------
ITER       Energy         Delta-E        Max-DP      RMS-DP      [F,P]     Damp
               ***  Starting incremental Fock matrix formation  ***
  0   -306.4799155675   0.000000000000 0.05969182  0.00114793  0.3194430 0.8500
  1   -306.6064151611  -0.126499593633 0.05336787  0.00103708  0.1809562 0.8500
                               ***Turning on DIIS***
  2   -306.6751011479  -0.068685986729 0.04295914  0.00083646  0.0854789 0.8500
  3   -306.7047891744  -0.029688026577 0.02453077  0.00060930  0.0561948 0.8500
  4   -306.7231441037  -0.018354929237 0.01600603  0.00043882  0.0425374 0.8500
  5   -306.7422686717  -0.019124568017 0.01387703  0.00033859  0.0329157 0.8500
  6   -306.7607505369  -0.018481865218 0.07559410  0.00185941  0.0265886 0.0000
  7   -306.8733117447  -0.112561207823 0.00134592  0.00003677  0.0803088 0.8500
  8   -306.8740652926  -0.000753547911 0.00350698  0.00006951  0.0755461 0.8500
  9   -306.8755317434  -0.001466450793 0.00383175  0.00007222  0.0634108 0.8500
 10   -306.8768050745  -0.001273331093 0.00307643  0.00005775  0.0503786 0.8500
 11   -306.8776585108  -0.000853436256 0.00244413  0.00004686  0.0401864 0.8500
 12   -306.8782355591  -0.000577048290 0.00191462  0.00003757  0.0323499 0.8500
 13   -306.8786349142  -0.000399355141 0.01013554  0.00020589  0.0263714 0.0000
 14   -306.8800360342  -0.001401119968 0.00092922  0.00002793  0.0048237 0.0000
 15   -306.8800708505  -0.000034816346 0.00043981  0.00002032  0.0008295 0.0000
               *** Restarting incremental Fock matrix formation ***
                                   *** Resetting DIIS ***
 16   -306.8801042448  -0.000033394304 0.00021674  0.00001078  0.0005370 0.0000
 17   -306.8801071753  -0.000002930517 0.00013448  0.00000593  0.0003739 0.0000
 18   -306.8801085222  -0.000001346804 0.00018475  0.00000676  0.0003039 0.0000
 19   -306.8801095288  -0.000001006684 0.00008573  0.00000317  0.0002838 0.0000
                 **** Energy Check signals convergence ****

               *****************************************************
               *                     SUCCESS                       *
               *           SCF CONVERGED AFTER  20 CYCLES          *
               *****************************************************


------------------------------------------------------------------------------
                          SCF STABILITY ANALYSIS                              
------------------------------------------------------------------------------


---------------
TD-DFT XC SETUP
---------------

DFT calculation                         ... on
Name of the grid file                   ... /scratch/ch1tk/orca.15473/wB97XD3_def2-SVP_toluene_S0_TDA6S_3-00.grid.tmp
Exchange functional (SCF)               ... WB97X-D3
Exchange functional (TD-DFT)            ... WB97X-D3
Correlation functional (SCF)            ... WB97X-D3
Correlation functional (TD-DFT)         ... WB97X-D3
Hybrid DFT                              ... on
   Exchange mixing (SCF)                ...  0.196
   Exchange mixing (TD-DFT)             ...  0.196
   GGA exch. scaling(SCF)               ...  0.000
   GGA exch. scaling (TD-DFT)           ...  0.000
   GGA corr. scaling (SCF)              ...  1.000
   GGA corr. scaling (TD-DFT)           ...  1.000
Range-Separated Exchange                ... on
   Range Range separation parameter mu  .... 0.250
   Max. amount of RS exchange (SCF)     ...  0.804
   Max. amount of RS exchange (TD-DFT)  ...  0.804

Electron density on the grid   ... found on disk
Building xc-kernel on the grid ... done
                    *** TD-DFT CALCULATION INITIALIZED ***

                       ****Iteration    0****

   Memory handling for direct AO based CIS:
   Memory per vector needed      ...     1 MB
   Memory needed                 ...     7 MB
   Memory available              ...  1024 MB
   Number of vectors per batch   ...   783
   Number of batches             ...     1
   Time for densities:     0.007
   Time for XC-Integration:     1.520
   Time for K (COSX):    10.708
   Time for RI-J (Direct):     1.619
   Time for Sigma-Completion:     0.029
   Lowest Energy          :    -0.184467790913
   Maximum Energy change  :     0.184467790913 (vector 0)
   Maximum residual norm  :     0.018187028526

                       ****Iteration    1****
   Time for densities:     0.004
   Time for XC-Integration:     0.863
   Time for K (COSX):    10.334
   Time for RI-J (Direct):     0.855
   Time for Sigma-Completion:     0.014
   Lowest Energy          :    -0.208200617220
   Maximum Energy change  :     0.023732826308 (vector 0)
   Maximum residual norm  :     0.000861177276

                       ****Iteration    2****
   Time for densities:     0.004
   Time for XC-Integration:     0.877
   Time for K (COSX):    10.354
   Time for RI-J (Direct):     0.870
   Time for Sigma-Completion:     0.014
   Lowest Energy          :    -0.208507950436
   Maximum Energy change  :     0.001713484238 (vector 1)
   Maximum residual norm  :     0.000069989366

      *** CONVERGENCE OF RESIDUAL NORM REACHED ***

----------------------------- 
SCF STABILITY ANALYSIS RESULT 
----------------------------- 

UHF/UKS->UHF/UKS - singlet - internal

   Root    Eigenvalue (au) 
     0      -0.208508 
     1      -0.065299 
     2      -0.033265 

Stability Analysis indicates an UNSTABLE HF/KS wave function with SEVERAL negative eigenvalues.

Since this is UHF/UKS, we will restart the SCF using a new guess based on the eigenvector 
associated with the lowest eigenvalue. Because there is no guarantee that the restart     
will result in a stable solution, the user should check the stability of the resulting    
wave function in a separate calculation using the MOREAD guess feature.

Obtain new guess               ... done 

Total time for performing the stability analysis:    38.113sec

--------------------------
SCF ITERATIONS (restarted)
--------------------------
ITER       Energy         Delta-E        Max-DP      RMS-DP      [F,P]     Damp
               ***  Starting incremental Fock matrix formation  ***
  0   -306.9138715577   0.000000000000 0.00448903  0.00009105  0.0102907 0.8500
  1   -306.9159682812  -0.002096723516 0.00593048  0.00012535  0.0091774 0.8500
                               ***Turning on DIIS***
  2   -306.9186591159  -0.002690834707 0.04349176  0.00091379  0.0083566 0.0000
  3   -306.9480257417  -0.029366625773 0.01339032  0.00028183  0.0057589 0.0000
  4   -306.9559423322  -0.007916590485 0.00895132  0.00018728  0.0057293 0.0000
  5   -306.9607546473  -0.004812315160 0.00613606  0.00012478  0.0057471 0.0000
  6   -306.9637062291  -0.002951581765 0.01026808  0.00021815  0.0057554 0.0000
  7   -306.9681848866  -0.004478657543 0.02567071  0.00050297  0.0044523 0.0000
  8   -306.9747747801  -0.006589893419 0.00580744  0.00009584  0.0083925 0.0000
  9   -306.9753895800  -0.000614799902 0.00974141  0.00018571  0.0026736 0.0000
 10   -306.9762927384  -0.000903158461 0.00409563  0.00007595  0.0053395 0.0000
 11   -306.9765174363  -0.000224697868 0.00509358  0.00008679  0.0014593 0.0000
 12   -306.9766961469  -0.000178710566 0.00240309  0.00003712  0.0008987 0.0000
 13   -306.9767360357  -0.000039888791 0.00136060  0.00002141  0.0006193 0.0000
 14   -306.9767465419  -0.000010506209 0.00059090  0.00001075  0.0004470 0.0000
 15   -306.9767491724  -0.000002630523 0.00027849  0.00000534  0.0002414 0.0000
                 **** Energy Check signals convergence ****

               *****************************************************
               *                     SUCCESS                       *
               *           SCF CONVERGED AFTER  16 CYCLES          *
               *****************************************************

Setting up the final grid:

General Integration Accuracy     IntAcc      ...  4.670
Radial Grid Type                 RadialGrid  ... Gauss-Chebyshev
Angular Grid (max. acc.)         AngularGrid ... Lebedev-302
Angular grid pruning method      GridPruning ... 3 (G Style)
Weight generation scheme         WeightScheme... Becke
Basis function cutoff            BFCut       ...    1.0000e-10
Integration weight cutoff        WCut        ...    1.0000e-14
Grids for H and He will be reduced by one unit

# of grid points (after initial pruning)     ...  63848 (   0.0 sec)
# of grid points (after weights+screening)   ...  59229 (   0.1 sec)
nearest neighbour list constructed           ...    0.0 sec
Grid point re-assignment to atoms done       ...    0.0 sec
Grid point division into batches done        ...    0.2 sec
Reduced shell lists constructed in    1.0 sec

Total number of grid points                  ...    59229
Total number of batches                      ...      931
Average number of points per batch           ...       63
Average number of grid points per atom       ...     4556
Average number of shells per batch           ...    39.50 (65.84%)
Average number of basis functions per batch  ...    83.37 (65.13%)
Average number of large shells per batch     ...    30.80 (77.97%)
Average number of large basis fcns per batch ...    64.21 (77.02%)
Maximum spatial batch extension              ...  19.13, 16.67, 23.12 au
Average spatial batch extension              ...   2.65,  2.51,  3.07 au

Final grid set up in    1.1 sec
Final integration                            ... done (   1.4 sec)
Change in XC energy                          ...     0.000981559
Integrated number of electrons               ...    49.999897658
Previous integrated no of electrons          ...    50.000105807
Old exchange energy                            =    -13.431665262 Eh
New exchange energy                            =    -13.431928836 Eh
Exchange energy change after final integration =     -0.000263574 Eh
Total energy after final integration           =   -306.976031812 Eh
Final COS-X integration done in                =     8.369 sec

----------------
TOTAL SCF ENERGY
----------------

Total Energy       :         -306.97603181 Eh           -8353.24250 eV

Components:
Nuclear Repulsion  :          266.03571707 Eh            7239.19990 eV
Electronic Energy  :         -573.01174888 Eh          -15592.44239 eV
One Electron Energy:         -941.39187548 Eh          -25616.57525 eV
Two Electron Energy:          368.38012660 Eh           10024.13286 eV

Virial components:
Potential Energy   :         -610.83621446 Eh          -16621.69843 eV
Kinetic Energy     :          303.86018265 Eh            8268.45593 eV
Virial Ratio       :            2.01025422


DFT components:
N(Alpha)           :       24.999941663675 electrons
N(Beta)            :       24.999955994519 electrons
N(Total)           :       49.999897658194 electrons
E(XC)              :      -29.671349724673 Eh       

---------------
SCF CONVERGENCE
---------------

  Last Energy change         ...   -6.2456e-07  Tolerance :   1.0000e-06
  Last MAX-Density change    ...    0.0000e+00  Tolerance :   1.0000e-05
  Last RMS-Density change    ...    0.0000e+00  Tolerance :   1.0000e-06
  Last DIIS Error            ...    1.3037e-04  Tolerance :   1.0000e-06

             **** THE GBW FILE WAS UPDATED (/scratch/ch1tk/orca.15473/wB97XD3_def2-SVP_toluene_S0_TDA6S_3-00.gbw) ****
             **** DENSITY FILE WAS UPDATED (/scratch/ch1tk/orca.15473/wB97XD3_def2-SVP_toluene_S0_TDA6S_3-00.scfp.tmp) ****
             **** ENERGY FILE WAS UPDATED (/scratch/ch1tk/orca.15473/wB97XD3_def2-SVP_toluene_S0_TDA6S_3-00.en.tmp) ****

     --------------------------------------------------------------------
                                      WARNING
     A stability analysis of the first UHF/UKS SCF solution was performed
     and an instability detected. The result was used as a guess for
     a second SCF, which has converged. There is no guarantee that the
     current solution is stable - it is up to you to rerun the stability
     analysis using the now stored solution as a guess and verify.
     --------------------------------------------------------------------

----------------------
UHF SPIN CONTAMINATION
----------------------

Warning: in a DFT calculation there is little theoretical justification to 
         calculate <S**2> as in Hartree-Fock theory. We will do it anyways
         but you should keep in mind that the values have only limited relevance

Expectation value of <S**2>     :     0.995102
Ideal value S*(S+1) for S=0.0   :     0.000000
Deviation                       :     0.995102

----------------
ORBITAL ENERGIES
----------------
                 SPIN UP ORBITALS
  NO   OCC          E(Eh)            E(eV) 
   0   1.0000     -19.307115      -525.3733 
   1   1.0000     -10.366053      -282.0746 
   2   1.0000     -10.307305      -280.4760 
   3   1.0000     -10.307020      -280.4683 
   4   1.0000     -10.305139      -280.4171 
   5   1.0000     -10.304691      -280.4049 
   6   1.0000     -10.295411      -280.1524 
   7   1.0000      -1.117575       -30.4108 
   8   1.0000      -0.969265       -26.3750 
   9   1.0000      -0.868144       -23.6234 
  10   1.0000      -0.842537       -22.9266 
  11   1.0000      -0.725734       -19.7482 
  12   1.0000      -0.699764       -19.0416 
  13   1.0000      -0.626280       -17.0419 
  14   1.0000      -0.573122       -15.5954 
  15   1.0000      -0.569563       -15.4986 
  16   1.0000      -0.535912       -14.5829 
  17   1.0000      -0.530888       -14.4462 
  18   1.0000      -0.524621       -14.2757 
  19   1.0000      -0.464615       -12.6428 
  20   1.0000      -0.453719       -12.3463 
  21   1.0000      -0.444836       -12.1046 
  22   1.0000      -0.415137       -11.2964 
  23   1.0000      -0.354243        -9.6394 
  24   1.0000      -0.315395        -8.5823 
  25   0.0000      -0.079194        -2.1550 
  26   0.0000       0.058046         1.5795 
  27   0.0000       0.075748         2.0612 
  28   0.0000       0.145300         3.9538 
  29   0.0000       0.184226         5.0130 
  30   0.0000       0.201796         5.4912 
  31   0.0000       0.231916         6.3108 
  32   0.0000       0.237957         6.4752 
  33   0.0000       0.245187         6.6719 
  34   0.0000       0.290237         7.8977 
  35   0.0000       0.347669         9.4606 
  36   0.0000       0.370459        10.0807 
  37   0.0000       0.382229        10.4010 
  38   0.0000       0.411291        11.1918 
  39   0.0000       0.441398        12.0111 
  40   0.0000       0.495882        13.4936 
  41   0.0000       0.496008        13.4971 
  42   0.0000       0.517081        14.0705 
  43   0.0000       0.529922        14.4199 
  44   0.0000       0.555953        15.1283 
  45   0.0000       0.558605        15.2004 
  46   0.0000       0.580749        15.8030 
  47   0.0000       0.599209        16.3053 
  48   0.0000       0.626521        17.0485 
  49   0.0000       0.629117        17.1191 
  50   0.0000       0.632327        17.2065 
  51   0.0000       0.673397        18.3241 
  52   0.0000       0.694359        18.8945 
  53   0.0000       0.702432        19.1141 
  54   0.0000       0.729415        19.8484 
  55   0.0000       0.742877        20.2147 
  56   0.0000       0.765162        20.8211 
  57   0.0000       0.779190        21.2028 
  58   0.0000       0.804554        21.8930 
  59   0.0000       0.812929        22.1209 
  60   0.0000       0.830301        22.5936 
  61   0.0000       0.836874        22.7725 
  62   0.0000       0.865968        23.5642 
  63   0.0000       0.891599        24.2617 
  64   0.0000       0.907905        24.7053 
  65   0.0000       0.960596        26.1392 
  66   0.0000       1.012859        27.5613 
  67   0.0000       1.090553        29.6755 
  68   0.0000       1.105517        30.0827 
  69   0.0000       1.162012        31.6200 
  70   0.0000       1.259185        34.2642 
  71   0.0000       1.271581        34.6015 
  72   0.0000       1.309357        35.6294 
  73   0.0000       1.324918        36.0528 
  74   0.0000       1.329139        36.1677 
  75   0.0000       1.365741        37.1637 
  76   0.0000       1.366256        37.1777 
  77   0.0000       1.389140        37.8004 
  78   0.0000       1.452336        39.5201 
  79   0.0000       1.457090        39.6494 
  80   0.0000       1.491655        40.5900 
  81   0.0000       1.532749        41.7082 
  82   0.0000       1.577772        42.9334 
  83   0.0000       1.601276        43.5729 
  84   0.0000       1.744545        47.4715 
  85   0.0000       1.753533        47.7161 
  86   0.0000       1.781779        48.4847 
  87   0.0000       1.824697        49.6525 
  88   0.0000       1.835565        49.9483 
  89   0.0000       1.836837        49.9829 
  90   0.0000       1.855373        50.4873 
  91   0.0000       1.876633        51.0658 
  92   0.0000       1.885155        51.2977 
  93   0.0000       1.890500        51.4431 
  94   0.0000       1.924279        52.3623 
  95   0.0000       1.986463        54.0544 
  96   0.0000       2.037261        55.4367 
  97   0.0000       2.067223        56.2520 
  98   0.0000       2.074214        56.4422 
  99   0.0000       2.130076        57.9623 
 100   0.0000       2.188339        59.5477 
 101   0.0000       2.223748        60.5113 
 102   0.0000       2.230393        60.6921 
 103   0.0000       2.280921        62.0670 
 104   0.0000       2.304298        62.7031 
 105   0.0000       2.353157        64.0327 
 106   0.0000       2.356820        64.1323 
 107   0.0000       2.396827        65.2210 
 108   0.0000       2.432780        66.1993 
 109   0.0000       2.436425        66.2985 
 110   0.0000       2.595224        70.6196 
 111   0.0000       2.633432        71.6593 
 112   0.0000       2.673201        72.7415 
 113   0.0000       2.681164        72.9582 
 114   0.0000       2.731934        74.3397 
 115   0.0000       2.788065        75.8671 
 116   0.0000       2.798520        76.1516 
 117   0.0000       2.818212        76.6874 
 118   0.0000       2.821422        76.7748 
 119   0.0000       2.943443        80.0952 
 120   0.0000       2.971249        80.8518 
 121   0.0000       3.060942        83.2925 
 122   0.0000       3.095845        84.2422 
 123   0.0000       3.114804        84.7581 
 124   0.0000       3.245771        88.3219 
 125   0.0000       3.446931        93.7958 
 126   0.0000       3.485032        94.8325 
 127   0.0000       3.782078       102.9156 

                 SPIN DOWN ORBITALS
  NO   OCC          E(Eh)            E(eV) 
   0   1.0000     -19.326151      -525.8913 
   1   1.0000     -10.365765      -282.0668 
   2   1.0000     -10.307450      -280.4800 
   3   1.0000     -10.307109      -280.4707 
   4   1.0000     -10.305967      -280.4396 
   5   1.0000     -10.305741      -280.4335 
   6   1.0000     -10.295332      -280.1502 
   7   1.0000      -1.174180       -31.9511 
   8   1.0000      -0.974711       -26.5232 
   9   1.0000      -0.870337       -23.6831 
  10   1.0000      -0.851008       -23.1571 
  11   1.0000      -0.733884       -19.9700 
  12   1.0000      -0.706019       -19.2117 
  13   1.0000      -0.632876       -17.2214 
  14   1.0000      -0.597285       -16.2529 
  15   1.0000      -0.580792       -15.8042 
  16   1.0000      -0.543365       -14.7857 
  17   1.0000      -0.536415       -14.5966 
  18   1.0000      -0.532298       -14.4846 
  19   1.0000      -0.499787       -13.5999 
  20   1.0000      -0.467531       -12.7222 
  21   1.0000      -0.454833       -12.3766 
  22   1.0000      -0.441170       -12.0049 
  23   1.0000      -0.354650        -9.6505 
  24   1.0000      -0.323461        -8.8018 
  25   0.0000       0.057196         1.5564 
  26   0.0000       0.074472         2.0265 
  27   0.0000       0.141601         3.8532 
  28   0.0000       0.171053         4.6546 
  29   0.0000       0.191370         5.2075 
  30   0.0000       0.212020         5.7693 
  31   0.0000       0.232317         6.3217 
  32   0.0000       0.244683         6.6582 
  33   0.0000       0.266320         7.2469 
  34   0.0000       0.303921         8.2701 
  35   0.0000       0.353527         9.6200 
  36   0.0000       0.370248        10.0749 
  37   0.0000       0.381641        10.3850 
  38   0.0000       0.406623        11.0648 
  39   0.0000       0.440134        11.9767 
  40   0.0000       0.494533        13.4569 
  41   0.0000       0.495627        13.4867 
  42   0.0000       0.518913        14.1203 
  43   0.0000       0.531342        14.4586 
  44   0.0000       0.555527        15.1167 
  45   0.0000       0.578189        15.7333 
  46   0.0000       0.590656        16.0726 
  47   0.0000       0.623301        16.9609 
  48   0.0000       0.625892        17.0314 
  49   0.0000       0.631787        17.1918 
  50   0.0000       0.665133        18.0992 
  51   0.0000       0.693712        18.8769 
  52   0.0000       0.702273        19.1098 
  53   0.0000       0.728110        19.8129 
  54   0.0000       0.743245        20.2247 
  55   0.0000       0.768282        20.9060 
  56   0.0000       0.778743        21.1907 
  57   0.0000       0.801053        21.7978 
  58   0.0000       0.811541        22.0832 
  59   0.0000       0.826694        22.4955 
  60   0.0000       0.834244        22.7009 
  61   0.0000       0.854011        23.2388 
  62   0.0000       0.873226        23.7617 
  63   0.0000       0.900069        24.4921 
  64   0.0000       0.925104        25.1733 
  65   0.0000       0.966012        26.2865 
  66   0.0000       1.011400        27.5216 
  67   0.0000       1.076528        29.2938 
  68   0.0000       1.102702        30.0061 
  69   0.0000       1.153336        31.3839 
  70   0.0000       1.217639        33.1336 
  71   0.0000       1.270777        34.5796 
  72   0.0000       1.306673        35.5564 
  73   0.0000       1.323371        36.0108 
  74   0.0000       1.328882        36.1607 
  75   0.0000       1.364780        37.1376 
  76   0.0000       1.365588        37.1596 
  77   0.0000       1.388767        37.7903 
  78   0.0000       1.531216        41.6665 
  79   0.0000       1.564191        42.5638 
  80   0.0000       1.586837        43.1800 
  81   0.0000       1.741388        47.3856 
  82   0.0000       1.750909        47.6447 
  83   0.0000       1.781537        48.4781 
  84   0.0000       1.823649        49.6240 
  85   0.0000       1.833131        49.8820 
  86   0.0000       1.835262        49.9400 
  87   0.0000       1.843611        50.1672 
  88   0.0000       1.869144        50.8620 
  89   0.0000       1.881649        51.2023 
  90   0.0000       1.886365        51.3306 
  91   0.0000       1.889759        51.4230 
  92   0.0000       1.922303        52.3085 
  93   0.0000       1.947790        53.0021 
  94   0.0000       1.968689        53.5707 
  95   0.0000       1.988829        54.1188 
  96   0.0000       2.037197        55.4350 
  97   0.0000       2.066799        56.2405 
  98   0.0000       2.074159        56.4407 
  99   0.0000       2.126831        57.8740 
 100   0.0000       2.187763        59.5321 
 101   0.0000       2.223150        60.4950 
 102   0.0000       2.232230        60.7421 
 103   0.0000       2.278766        62.0084 
 104   0.0000       2.302109        62.6436 
 105   0.0000       2.348032        63.8932 
 106   0.0000       2.350166        63.9513 
 107   0.0000       2.395859        65.1946 
 108   0.0000       2.431880        66.1748 
 109   0.0000       2.434671        66.2508 
 110   0.0000       2.594241        70.5929 
 111   0.0000       2.614126        71.1340 
 112   0.0000       2.627086        71.4867 
 113   0.0000       2.653421        72.2033 
 114   0.0000       2.722975        74.0959 
 115   0.0000       2.728213        74.2385 
 116   0.0000       2.767019        75.2944 
 117   0.0000       2.818041        76.6828 
 118   0.0000       2.820319        76.7448 
 119   0.0000       2.940810        80.0235 
 120   0.0000       2.970028        80.8186 
 121   0.0000       3.046478        82.8989 
 122   0.0000       3.086978        84.0009 
 123   0.0000       3.106193        84.5238 
 124   0.0000       3.240202        88.1704 
 125   0.0000       3.422412        93.1286 
 126   0.0000       3.460850        94.1745 
 127   0.0000       3.774350       102.7053 

                    ********************************
                    * MULLIKEN POPULATION ANALYSIS *
                    ********************************

--------------------------------------------
MULLIKEN ATOMIC CHARGES AND SPIN POPULATIONS
--------------------------------------------
   0 C :   -0.007597   -0.005868
   1 C :   -0.070061   -0.043525
   2 C :    0.186941    0.048320
   3 C :   -0.077841   -0.035974
   4 C :   -0.009214   -0.004025
   5 C :   -0.031912    0.009187
   6 H :    0.031067   -0.003158
   7 H :    0.027650    0.000432
   8 H :    0.024392    0.001647
   9 H :    0.030000   -0.002495
  10 H :    0.023930   -0.000287
  11 O :   -0.133626   -0.955361
  12 H :    0.006271    0.991106
Sum of atomic charges         :   -0.0000000
Sum of atomic spin populations:   -0.0000000

-----------------------------------------------------
MULLIKEN REDUCED ORBITAL CHARGES AND SPIN POPULATIONS
-----------------------------------------------------
CHARGE
  0 C s       :     3.149188  s :     3.149188
      pz      :     0.964378  p :     2.822286
      px      :     0.921752
      py      :     0.936156
      dz2     :     0.002566  d :     0.036124
      dxz     :     0.003847
      dyz     :     0.006744
      dx2y2   :     0.011173
      dxy     :     0.011793
  1 C s       :     3.200348  s :     3.200348
      pz      :     1.065040  p :     2.836679
      px      :     0.877578
      py      :     0.894061
      dz2     :     0.002723  d :     0.033033
      dxz     :     0.003477
      dyz     :     0.005461
      dx2y2   :     0.008650
      dxy     :     0.012722
  2 C s       :     2.959514  s :     2.959514
      pz      :     0.964023  p :     2.779502
      px      :     1.032100
      py      :     0.783379
      dz2     :     0.005583  d :     0.074044
      dxz     :     0.007759
      dyz     :     0.019723
      dx2y2   :     0.025164
      dxy     :     0.015815
  3 C s       :     3.201534  s :     3.201534
      pz      :     1.068644  p :     2.843270
      px      :     0.875982
      py      :     0.898645
      dz2     :     0.002716  d :     0.033037
      dxz     :     0.003647
      dyz     :     0.005287
      dx2y2   :     0.008908
      dxy     :     0.012479
  4 C s       :     3.150996  s :     3.150996
      pz      :     0.964291  p :     2.822020
      px      :     0.916607
      py      :     0.941121
      dz2     :     0.002575  d :     0.036198
      dxz     :     0.003696
      dyz     :     0.006903
      dx2y2   :     0.011442
      dxy     :     0.011581
  5 C s       :     3.144825  s :     3.144825
      pz      :     1.026556  p :     2.852737
      px      :     0.954644
      py      :     0.871538
      dz2     :     0.002558  d :     0.034350
      dxz     :     0.006226
      dyz     :     0.002560
      dx2y2   :     0.012394
      dxy     :     0.010612
  6 H s       :     0.946314  s :     0.946314
      pz      :     0.004404  p :     0.022619
      px      :     0.011740
      py      :     0.006475
  7 H s       :     0.949378  s :     0.949378
      pz      :     0.004884  p :     0.022972
      px      :     0.012043
      py      :     0.006045
  8 H s       :     0.952544  s :     0.952544
      pz      :     0.004885  p :     0.023064
      px      :     0.011763
      py      :     0.006416
  9 H s       :     0.947448  s :     0.947448
      pz      :     0.004404  p :     0.022552
      px      :     0.012249
      py      :     0.005899
 10 H s       :     0.953055  s :     0.953055
      pz      :     0.004809  p :     0.023014
      px      :     0.003044
      py      :     0.015161
 11 O s       :     3.857038  s :     3.857038
      pz      :     1.845351  p :     4.264573
      px      :     1.035648
      py      :     1.383573
      dz2     :     0.001649  d :     0.012015
      dxz     :     0.000027
      dyz     :     0.002972
      dx2y2   :     0.004940
      dxy     :     0.002427
 12 H s       :     0.993668  s :     0.993668
      pz      :     0.000001  p :     0.000061
      px      :     0.000028
      py      :     0.000032

SPIN
  0 C s       :    -0.000601  s :    -0.000601
      pz      :    -0.000175  p :    -0.005162
      px      :     0.000241
      py      :    -0.005228
      dz2     :    -0.000008  d :    -0.000105
      dxz     :     0.000031
      dyz     :     0.000081
      dx2y2   :    -0.000026
      dxy     :    -0.000182
  1 C s       :    -0.013964  s :    -0.013964
      pz      :     0.002444  p :    -0.029402
      px      :    -0.017658
      py      :    -0.014188
      dz2     :    -0.000041  d :    -0.000159
      dxz     :    -0.000105
      dyz     :    -0.000001
      dx2y2   :     0.000111
      dxy     :    -0.000124
  2 C s       :     0.012403  s :     0.012403
      pz      :     0.001490  p :     0.045570
      px      :     0.019178
      py      :     0.024902
      dz2     :    -0.000059  d :    -0.009653
      dxz     :    -0.000065
      dyz     :     0.000522
      dx2y2   :    -0.000037
      dxy     :    -0.010013
  3 C s       :    -0.009830  s :    -0.009830
      pz      :     0.003878  p :    -0.026072
      px      :    -0.018211
      py      :    -0.011738
      dz2     :    -0.000043  d :    -0.000072
      dxz     :    -0.000104
      dyz     :    -0.000002
      dx2y2   :     0.000153
      dxy     :    -0.000076
  4 C s       :    -0.000314  s :    -0.000314
      pz      :    -0.000224  p :    -0.003646
      px      :    -0.000101
      py      :    -0.003321
      dz2     :    -0.000005  d :    -0.000065
      dxz     :     0.000027
      dyz     :     0.000096
      dx2y2   :    -0.000024
      dxy     :    -0.000159
  5 C s       :     0.000970  s :     0.000970
      pz      :     0.007518  p :     0.008261
      px      :     0.000532
      py      :     0.000211
      dz2     :    -0.000020  d :    -0.000044
      dxz     :     0.000020
      dyz     :    -0.000013
      dx2y2   :     0.000024
      dxy     :    -0.000055
  6 H s       :    -0.003175  s :    -0.003175
      pz      :    -0.000004  p :     0.000017
      px      :    -0.000011
      py      :     0.000032
  7 H s       :     0.000435  s :     0.000435
      pz      :     0.000033  p :    -0.000003
      px      :    -0.000066
      py      :     0.000031
  8 H s       :     0.001443  s :     0.001443
      pz      :     0.000041  p :     0.000205
      px      :     0.000025
      py      :     0.000139
  9 H s       :    -0.002511  s :    -0.002511
      pz      :    -0.000004  p :     0.000015
      px      :    -0.000005
      py      :     0.000025
 10 H s       :    -0.000343  s :    -0.000343
      pz      :     0.000053  p :     0.000057
      px      :     0.000001
      py      :     0.000003
 11 O s       :    -0.019492  s :    -0.019492
      pz      :    -0.015538  p :    -0.935748
      px      :    -0.898826
      py      :    -0.021384
      dz2     :    -0.000136  d :    -0.000121
      dxz     :    -0.000001
      dyz     :     0.000005
      dx2y2   :     0.000111
      dxy     :    -0.000100
 12 H s       :     0.991110  s :     0.991110
      pz      :     0.000000  p :    -0.000004
      px      :    -0.000010
      py      :     0.000006


                     *******************************
                     * LOEWDIN POPULATION ANALYSIS *
                     *******************************

-------------------------------------------
LOEWDIN ATOMIC CHARGES AND SPIN POPULATIONS
-------------------------------------------
   0 C :   -0.011966   -0.004416
   1 C :   -0.063448   -0.035070
   2 C :    0.022136   -0.001568
   3 C :   -0.068619   -0.026915
   4 C :   -0.012168   -0.002324
   5 C :   -0.058287    0.007192
   6 H :    0.038219   -0.002321
   7 H :    0.038877    0.000539
   8 H :    0.036505    0.003679
   9 H :    0.038233   -0.001943
  10 H :    0.033049    0.000116
  11 O :    0.000608   -0.924651
  12 H :    0.006862    0.987681

----------------------------------------------------
LOEWDIN REDUCED ORBITAL CHARGES AND SPIN POPULATIONS
----------------------------------------------------
CHARGE
  0 C s       :     2.858164  s :     2.858164
      pz      :     0.949089  p :     3.061366
      px      :     1.054362
      py      :     1.057916
      dz2     :     0.005975  d :     0.092436
      dxz     :     0.007199
      dyz     :     0.013848
      dx2y2   :     0.031834
      dxy     :     0.033580
  1 C s       :     2.856728  s :     2.856728
      pz      :     1.039362  p :     3.119511
      px      :     1.027207
      py      :     1.052942
      dz2     :     0.006437  d :     0.087209
      dxz     :     0.006095
      dyz     :     0.011131
      dx2y2   :     0.027130
      dxy     :     0.036417
  2 C s       :     2.849714  s :     2.849714
      pz      :     0.950602  p :     2.958911
      px      :     1.099261
      py      :     0.909048
      dz2     :     0.012123  d :     0.169240
      dxz     :     0.015398
      dyz     :     0.037020
      dx2y2   :     0.061728
      dxy     :     0.042971
  3 C s       :     2.857532  s :     2.857532
      pz      :     1.043083  p :     3.124079
      px      :     1.025826
      py      :     1.055171
      dz2     :     0.006429  d :     0.087008
      dxz     :     0.006446
      dyz     :     0.010715
      dx2y2   :     0.027682
      dxy     :     0.035735
  4 C s       :     2.858047  s :     2.858047
      pz      :     0.948712  p :     3.061553
      px      :     1.053911
      py      :     1.058930
      dz2     :     0.005988  d :     0.092567
      dxz     :     0.006825
      dyz     :     0.014270
      dx2y2   :     0.032584
      dxy     :     0.032900
  5 C s       :     2.855897  s :     2.855897
      pz      :     1.007229  p :     3.112886
      px      :     1.063865
      py      :     1.041792
      dz2     :     0.006086  d :     0.089504
      dxz     :     0.013057
      dyz     :     0.004161
      dx2y2   :     0.035268
      dxy     :     0.030932
  6 H s       :     0.895358  s :     0.895358
      pz      :     0.013379  p :     0.066423
      px      :     0.033885
      py      :     0.019159
  7 H s       :     0.891981  s :     0.891981
      pz      :     0.015765  p :     0.069143
      px      :     0.035011
      py      :     0.018366
  8 H s       :     0.894493  s :     0.894493
      pz      :     0.015708  p :     0.069002
      px      :     0.034182
      py      :     0.019112
  9 H s       :     0.895353  s :     0.895353
      pz      :     0.013388  p :     0.066414
      px      :     0.035218
      py      :     0.017808
 10 H s       :     0.899308  s :     0.899308
      pz      :     0.014998  p :     0.067643
      px      :     0.010799
      py      :     0.041846
 11 O s       :     3.654252  s :     3.654252
      pz      :     1.838391  p :     4.325494
      px      :     1.032961
      py      :     1.454141
      dz2     :     0.002833  d :     0.019647
      dxz     :     0.000033
      dyz     :     0.004096
      dx2y2   :     0.008714
      dxy     :     0.003971
 12 H s       :     0.993061  s :     0.993061
      pz      :     0.000001  p :     0.000078
      px      :     0.000030
      py      :     0.000047

SPIN
  0 C s       :    -0.001085  s :    -0.001085
      pz      :     0.000016  p :    -0.003090
      px      :    -0.000007
      py      :    -0.003099
      dz2     :    -0.000025  d :    -0.000241
      dxz     :     0.000080
      dyz     :     0.000183
      dx2y2   :     0.000019
      dxy     :    -0.000497
  1 C s       :    -0.008991  s :    -0.008991
      pz      :     0.002144  p :    -0.025974
      px      :    -0.013876
      py      :    -0.014242
      dz2     :    -0.000088  d :    -0.000104
      dxz     :    -0.000118
      dyz     :    -0.000025
      dx2y2   :     0.000070
      dxy     :     0.000057
  2 C s       :     0.005896  s :     0.005896
      pz      :     0.000736  p :     0.015938
      px      :    -0.003902
      py      :     0.019104
      dz2     :    -0.000394  d :    -0.023402
      dxz     :    -0.000105
      dyz     :     0.000745
      dx2y2   :    -0.001021
      dxy     :    -0.022627
  3 C s       :    -0.006895  s :    -0.006895
      pz      :     0.003407  p :    -0.020175
      px      :    -0.014018
      py      :    -0.009563
      dz2     :    -0.000077  d :     0.000154
      dxz     :    -0.000119
      dyz     :    -0.000022
      dx2y2   :     0.000270
      dxy     :     0.000103
  4 C s       :    -0.000617  s :    -0.000617
      pz      :    -0.000003  p :    -0.001533
      px      :    -0.000114
      py      :    -0.001416
      dz2     :    -0.000017  d :    -0.000174
      dxz     :     0.000071
      dyz     :     0.000217
      dx2y2   :    -0.000002
      dxy     :    -0.000443
  5 C s       :     0.000306  s :     0.000306
      pz      :     0.006840  p :     0.007025
      px      :     0.000011
      py      :     0.000174
      dz2     :    -0.000022  d :    -0.000139
      dxz     :     0.000043
      dyz     :    -0.000018
      dx2y2   :     0.000042
      dxy     :    -0.000183
  6 H s       :    -0.002268  s :    -0.002268
      pz      :    -0.000009  p :    -0.000053
      px      :     0.000013
      py      :    -0.000057
  7 H s       :     0.000897  s :     0.000897
      pz      :     0.000124  p :    -0.000359
      px      :    -0.000591
      py      :     0.000108
  8 H s       :     0.003361  s :     0.003361
      pz      :     0.000157  p :     0.000318
      px      :    -0.000209
      py      :     0.000371
  9 H s       :    -0.001936  s :    -0.001936
      pz      :    -0.000008  p :    -0.000007
      px      :     0.000020
      py      :    -0.000019
 10 H s       :    -0.000125  s :    -0.000125
      pz      :     0.000194  p :     0.000241
      px      :     0.000017
      py      :     0.000029
 11 O s       :    -0.012436  s :    -0.012436
      pz      :    -0.014530  p :    -0.912376
      px      :    -0.880897
      py      :    -0.016948
      dz2     :     0.000053  d :     0.000161
      dxz     :    -0.000001
      dyz     :     0.000003
      dx2y2   :     0.000016
      dxy     :     0.000090
 12 H s       :     0.987695  s :     0.987695
      pz      :     0.000000  p :    -0.000014
      px      :    -0.000013
      py      :    -0.000001


                      *****************************
                      * MAYER POPULATION ANALYSIS *
                      *****************************

  NA   - Mulliken gross atomic population
  ZA   - Total nuclear charge
  QA   - Mulliken gross atomic charge
  VA   - Mayer's total valence
  BVA  - Mayer's bonded valence
  FA   - Mayer's free valence

  ATOM       NA         ZA         QA         VA         BVA        FA
  0 C      6.0076     6.0000    -0.0076     3.8829     3.8828     0.0000
  1 C      6.0701     6.0000    -0.0701     3.8870     3.8848     0.0022
  2 C      5.8131     6.0000     0.1869     3.9400     3.9368     0.0032
  3 C      6.0778     6.0000    -0.0778     3.8814     3.8796     0.0018
  4 C      6.0092     6.0000    -0.0092     3.8870     3.8870     0.0000
  5 C      6.0319     6.0000    -0.0319     3.8569     3.8569     0.0001
  6 H      0.9689     1.0000     0.0311     0.9851     0.9851     0.0000
  7 H      0.9724     1.0000     0.0276     0.9949     0.9949     0.0000
  8 H      0.9756     1.0000     0.0244     0.9994     0.9994     0.0000
  9 H      0.9700     1.0000     0.0300     0.9850     0.9850     0.0000
 10 H      0.9761     1.0000     0.0239     0.9854     0.9854     0.0000
 11 O      8.1336     8.0000    -0.1336     2.1638     1.3380     0.8258
 12 H      0.9937     1.0000     0.0063     1.0012     0.0181     0.9830

  Mayer bond orders larger than 0.1
B(  0-C ,  1-C ) :   1.4051 B(  0-C ,  5-C ) :   1.3914 B(  0-C ,  6-H ) :   0.9854 
B(  1-C ,  2-C ) :   1.3331 B(  1-C ,  7-H ) :   0.9922 B(  2-C ,  3-C ) :   1.3367 
B(  2-C , 11-O ) :   1.1682 B(  3-C ,  4-C ) :   1.3952 B(  3-C ,  8-H ) :   0.9939 
B(  4-C ,  5-C ) :   1.4025 B(  4-C ,  9-H ) :   0.9859 B(  5-C , 10-H ) :   0.9917 


-------
TIMINGS
-------

Total SCF time: 0 days 0 hours 3 min 41 sec 

Total time                  ....     221.492 sec
Sum of individual times     ....     221.271 sec  ( 99.9%)

Fock matrix formation       ....     180.129 sec  ( 81.3%)
  Split-RI-J                ....      14.137 sec  (  7.8% of F)
  Chain of spheres X        ....     150.286 sec  ( 83.4% of F)
  COS-X 1 center corr.      ....       0.000 sec  (  0.0% of F)
  XC integration            ....      15.624 sec  (  8.7% of F)
    Basis function eval.    ....       5.896 sec  ( 37.7% of XC)
    Density eval.           ....       2.373 sec  ( 15.2% of XC)
    XC-Functional eval.     ....       2.459 sec  ( 15.7% of XC)
    XC-Potential eval.      ....       4.707 sec  ( 30.1% of XC)
Diagonalization             ....       0.250 sec  (  0.1%)
Density matrix formation    ....       0.015 sec  (  0.0%)
Population analysis         ....       0.009 sec  (  0.0%)
Initial guess               ....       0.484 sec  (  0.2%)
Orbital Transformation      ....       0.000 sec  (  0.0%)
Orbital Orthonormalization  ....       0.000 sec  (  0.0%)
DIIS solution               ....       0.064 sec  (  0.0%)
Grid generation             ....       2.206 sec  (  1.0%)
SCF Stability Analysis      ....      38.113 sec  ( 17.2%)
------------------------------------------------------------------------------
                        ORCA TD-DFT/TDA CALCULATION
------------------------------------------------------------------------------

Input orbitals are from        ... /scratch/ch1tk/orca.15473/wB97XD3_def2-SVP_toluene_S0_TDA6S_3-00.gbw
CI-vector output               ... /scratch/ch1tk/orca.15473/wB97XD3_def2-SVP_toluene_S0_TDA6S_3-00.cis
Tamm-Dancoff approximation     ... operative
CIS-Integral strategy          ... AO-integrals
Integral handling              ... AO integral Direct
Max. core memory used          ... 512 MB
Reference state                ... UHF
Number of operators            ... 2
Orbital ranges used for CIS calculation:
 Operator 0:  Orbitals   7... 24  to  25...127
 Operator 1:  Orbitals   7... 24  to  25...127
XAS localization array:
 Operator 0:  Orbitals  -1... -1
 Operator 1:  Orbitals  -1... -1
-------------------
XC-INTEGRATION GRID
-------------------

General Integration Accuracy     IntAcc      ...  3.670
Radial Grid Type                 RadialGrid  ... Gauss-Chebyshev
Angular Grid (max. acc.)         AngularGrid ... Lebedev-50
Angular grid pruning method      GridPruning ... 3 (G Style)
Weight generation scheme         WeightScheme... Becke
Basis function cutoff            BFCut       ...    1.0000e-10
Integration weight cutoff        WCut        ...    1.0000e-14
Grids for H and He will be reduced by one unit

# of grid points (after initial pruning)     ...   7582 (   0.0 sec)
# of grid points (after weights+screening)   ...   7165 (   0.0 sec)
nearest neighbour list constructed           ...    0.0 sec
Grid point re-assignment to atoms done       ...    0.0 sec
Grid point division into batches done        ...    0.0 sec
Reduced shell lists constructed in    0.1 sec

Total number of grid points                  ...     7165
Total number of batches                      ...      116
Average number of points per batch           ...       61
Average number of grid points per atom       ...      551
Average number of shells per batch           ...    45.86 (76.44%)
Average number of basis functions per batch  ...    98.00 (76.56%)
Average number of large shells per batch     ...    36.79 (80.21%)
Average number of large basis fcns per batch ...    77.76 (79.35%)
Maximum spatial batch extension              ...  18.13, 15.26, 30.56 au
Average spatial batch extension              ...   4.73,  4.42,  7.30 au

---------------------
COSX-INTEGRATION GRID
---------------------

General Integration Accuracy     IntAcc      ...  2.670
Radial Grid Type                 RadialGrid  ... Gauss-Chebyshev
Angular Grid (max. acc.)         AngularGrid ... Lebedev-50
Angular grid pruning method      GridPruning ... 3 (G Style)
Weight generation scheme         WeightScheme... Becke
Basis function cutoff            BFCut       ...    1.0000e-10
Integration weight cutoff        WCut        ...    1.0000e-14
Grids for H and He will be reduced by one unit

# of grid points (after initial pruning)     ...   4338 (   0.0 sec)
# of grid points (after weights+screening)   ...   4115 (   0.0 sec)
nearest neighbour list constructed           ...    0.0 sec
Grid point re-assignment to atoms done       ...    0.0 sec
Grid point division into batches done        ...    0.0 sec
Reduced shell lists constructed in    0.1 sec

Total number of grid points                  ...     4115
Total number of batches                      ...       72
Average number of points per batch           ...       57
Average number of grid points per atom       ...      317
Average number of shells per batch           ...    46.44 (77.40%)
Average number of basis functions per batch  ...    99.73 (77.91%)
Average number of large shells per batch     ...    37.51 (80.77%)
Average number of large basis fcns per batch ...    79.59 (79.81%)
Maximum spatial batch extension              ...  13.79, 12.87, 29.42 au
Average spatial batch extension              ...   4.96,  4.49,  7.34 au


---------------
TD-DFT XC SETUP
---------------

DFT calculation                         ... on
Name of the grid file                   ... /scratch/ch1tk/orca.15473/wB97XD3_def2-SVP_toluene_S0_TDA6S_3-00.grid_cis.tmp
Exchange functional (SCF)               ... WB97X-D3
Exchange functional (TD-DFT)            ... WB97X-D3
Correlation functional (SCF)            ... WB97X-D3
Correlation functional (TD-DFT)         ... WB97X-D3
Hybrid DFT                              ... on
   Exchange mixing (SCF)                ...  0.196
   Exchange mixing (TD-DFT)             ...  0.196
   GGA exch. scaling(SCF)               ...  0.000
   GGA exch. scaling (TD-DFT)           ...  0.000
   GGA corr. scaling (SCF)              ...  1.000
   GGA corr. scaling (TD-DFT)           ...  1.000
Range-Separated Exchange                ... on
   Range Range separation parameter mu  .... 0.250
   Max. amount of RS exchange (SCF)     ...  0.804
   Max. amount of RS exchange (TD-DFT)  ...  0.804

Building densities             ... done
Calculating rho(r) on the grid ... done
Building xc-kernel on the grid ... done
                    *** TD-DFT CALCULATION INITIALIZED ***


------------------------
DAVIDSON-DIAGONALIZATION
------------------------

Dimension of the eigenvalue problem            ...   3708
Number of roots to be determined               ...      6
Maximum size of the expansion space            ...     60
Convergence tolerance for the residual         ...    1.000e-06
Convergence tolerance for the energies         ...    1.000e-06
Orthogonality tolerance                        ...    1.000e-14
Level Shift                                    ...    0.000e+00
Constructing the preconditioner                ... o.k.
Building the initial guess                     ... o.k.
Number of trial vectors determined             ...     60


                       ****Iteration    0****

   Memory handling for direct AO based CIS:
   Memory per vector needed      ...     1 MB
   Memory needed                 ...    23 MB
   Memory available              ...   512 MB
   Number of vectors per batch   ...   391
   Number of batches             ...     1
   Time for densities:     0.021
   Time for RI-J (Direct):     4.440
   Time for K (COSX):     3.728
   Time for XC-Integration:     2.339
   Time for Sigma-Completion:     0.095
   Size of expansion space: 18
   Lowest Energy          :    -0.006598366243
   Maximum Energy change  :     0.172861147084 (vector 5)
   Maximum residual norm  :     0.005309537644

                       ****Iteration    1****
   Time for densities:     0.007
   Time for RI-J (Direct):     1.549
   Time for K (COSX):     3.133
   Time for XC-Integration:     0.822
   Time for Sigma-Completion:     0.031
   Size of expansion space: 24
   Lowest Energy          :    -0.010115044788
   Maximum Energy change  :     0.010979209240 (vector 3)
   Maximum residual norm  :     0.003578238108

                       ****Iteration    2****
   Time for densities:     0.007
   Time for RI-J (Direct):     1.572
   Time for K (COSX):     3.116
   Time for XC-Integration:     0.835
   Time for Sigma-Completion:     0.031
   Size of expansion space: 30
   Lowest Energy          :    -0.010143468931
   Maximum Energy change  :     0.007659649708 (vector 4)
   Maximum residual norm  :     0.001694550739

                       ****Iteration    3****
   Time for densities:     0.007
   Time for RI-J (Direct):     1.549
   Time for K (COSX):     2.978
   Time for XC-Integration:     0.810
   Time for Sigma-Completion:     0.034
   Size of expansion space: 36
   Lowest Energy          :    -0.010143907690
   Maximum Energy change  :     0.002250818122 (vector 3)
   Maximum residual norm  :     0.000078135976

                       ****Iteration    4****
   Time for densities:     0.007
   Time for RI-J (Direct):     1.521
   Time for K (COSX):     2.877
   Time for XC-Integration:     0.784
   Time for Sigma-Completion:     0.031
   Size of expansion space: 42
   Lowest Energy          :    -0.010143914808
   Maximum Energy change  :     0.000144424267 (vector 3)
   Maximum residual norm  :     0.000009686213

                       ****Iteration    5****
   Time for densities:     0.007
   Time for RI-J (Direct):     1.531
   Time for K (COSX):     2.755
   Time for XC-Integration:     0.754
   Time for Sigma-Completion:     0.029
   Size of expansion space: 48
   Lowest Energy          :    -0.010143914928
   Maximum Energy change  :     0.000011376990 (vector 3)
   Maximum residual norm  :     0.000000888333

      *** CONVERGENCE OF RESIDUAL NORM REACHED ***

Storing the converged CI vectors               ... /scratch/ch1tk/orca.15473/wB97XD3_def2-SVP_toluene_S0_TDA6S_3-00.cis1

                 *** DAVIDSON DONE ***

Total time for solving the CIS problem:    37.527sec

-------------------------
TD-DFT/TDA EXCITED STATES
-------------------------

the weight of the individual excitations are printed if larger than 0.01

STATE  1:  E=  -0.010144 au     -0.276 eV    -2226.3 cm**-1
    18a ->  25a  :     0.038947 (c= -0.19734922)
    21a ->  25a  :     0.163922 (c= -0.40487271)
    24a ->  25a  :     0.792699 (c=  0.89033663)

STATE  2:  E=   0.101868 au      2.772 eV    22357.5 cm**-1
    23a ->  25a  :     0.998414 (c= -0.99920666)

STATE  3:  E=   0.133548 au      3.634 eV    29310.5 cm**-1
    18a ->  25a  :     0.364278 (c= -0.60355485)
    21a ->  25a  :     0.439176 (c= -0.66270330)
    24a ->  25a  :     0.192476 (c= -0.43872066)

STATE  4:  E=   0.150809 au      4.104 eV    33098.7 cm**-1
    13a ->  25a  :     0.034406 (c= -0.18548764)
    15a ->  25a  :     0.219611 (c= -0.46862719)
    16a ->  25a  :     0.271274 (c=  0.52083943)
    19a ->  25a  :     0.303093 (c= -0.55053851)
    22a ->  25a  :     0.149985 (c=  0.38727899)

STATE  5:  E=   0.155114 au      4.221 eV    34043.6 cm**-1
    23a ->  26a  :     0.157250 (c=  0.39654732)
    24a ->  27a  :     0.329473 (c= -0.57399774)
    21b ->  32b  :     0.010605 (c=  0.10298095)
    23b ->  25b  :     0.155364 (c= -0.39416265)
    24b ->  26b  :     0.306643 (c=  0.55375319)

STATE  6:  E=   0.162705 au      4.427 eV    35709.6 cm**-1
    24a ->  26a  :     0.539525 (c=  0.73452339)
    23b ->  26b  :     0.010235 (c= -0.10117058)
    24b ->  25b  :     0.423864 (c=  0.65104818)


-----------------------------
TD-DFT/TDA-EXCITATION SPECTRA
-----------------------------

Center of mass = (  0.0211,  0.0563,  0.0000)
Calculating the Dipole integrals                  ... done
Transforming integrals                            ... done
Calculating the Linear Momentum integrals         ... done
Transforming integrals                            ... done
Calculating angular momentum integrals            ... done
Transforming integrals                            ... done

-----------------------------------------------------------------------------
         ABSORPTION SPECTRUM VIA TRANSITION ELECTRIC DIPOLE MOMENTS
-----------------------------------------------------------------------------
State   Energy  Wavelength   fosc         T2         TX        TY        TZ  
        (cm-1)    (nm)                  (au**2)     (au)      (au)      (au) 
-----------------------------------------------------------------------------
   1   -2226.3   -4491.7   -0.000000000   0.00000  -0.00000   0.00013  -0.00017
   2   22357.5    447.3   0.000031249   0.00046  -0.00007   0.00001  -0.02145
   3   29310.5    341.2   0.000001727   0.00002   0.00002  -0.00016  -0.00440
   4   33098.7    302.1   0.006343276   0.06309   0.23819   0.07975   0.00001
   5   34043.6    293.7   0.000198345   0.00192  -0.00043  -0.04379   0.00000
   6   35709.6    280.0   0.000324888   0.00300  -0.05472  -0.00080   0.00000

-----------------------------------------------------------------------------
         ABSORPTION SPECTRUM VIA TRANSITION VELOCITY DIPOLE MOMENTS
-----------------------------------------------------------------------------
State   Energy  Wavelength   fosc         P2         PX        PY        PZ  
        (cm-1)    (nm)                  (au**2)     (au)      (au)      (au) 
-----------------------------------------------------------------------------
   1   -2226.3   -4491.7   -0.000038949   0.00000  -0.00000   0.00002   0.00077
   2   22357.5    447.3   0.001565402   0.00024  -0.00001   0.00000  -0.01547
   3   29310.5    341.2   0.000002952   0.00000   0.00000  -0.00001  -0.00077
   4   33098.7    302.1   0.001597850   0.00036  -0.00867  -0.01692  -0.00000
   5   34043.6    293.7   0.000018176   0.00000  -0.00007  -0.00206   0.00000
   6   35709.6    280.0   0.000028390   0.00001  -0.00246   0.00094   0.00000

-------------------------------------------------------------------
                             CD SPECTRUM
-------------------------------------------------------------------
State   Energy Wavelength       R         MX        MY        MZ   
        (cm-1)   (nm)       (1e40*cgs)   (au)      (au)      (au)  
-------------------------------------------------------------------
   1   -2226.3   -4491.7     -0.02380   0.03027  -0.38666   0.00000
   2   22357.5    447.3     -0.00042   0.01960   0.00092  -0.00002
   3   29310.5    341.2      0.01624   0.01775  -0.21857  -0.00003
   4   33098.7    302.1      0.00261   0.00003   0.00003  -0.35962
   5   34043.6    293.7     -0.00029  -0.00000   0.00001  -0.00780
   6   35709.6    280.0     -0.00013   0.00000  -0.00000  -0.01836

Total run time:       38.103 sec

           *** ORCA-CIS/TD-DFT FINISHED WITHOUT ERROR ***

-----------------------
CIS/TD-DFT TOTAL ENERGY
-----------------------

    E(SCF)  =   -306.976031812 Eh
    DE(CIS) =     -0.010143915 Eh (Root  1)
    ----------------------------- ---------
    E(tot)  =   -306.986175727 Eh



-------------------------------------------------------------------------------
                          DFT DISPERSION CORRECTION                            
                                                                               
                              DFTD3 V3.1  Rev 1                                
                              USING zero damping                               
-------------------------------------------------------------------------------
The omegaB97X-D3 functional is recognized. Fit by Chai et al.
Active option DFTDOPT                   ...         3   

molecular C6(AA) [au] = 2038.064784 


            DFT-D V3
 parameters
 s6 scaling factor         :     1.0000 
 rs6 scaling factor        :     1.2810 
 s8 scaling factor         :     1.0000 
 rs8 scaling factor        :     1.0940 
 Damping factor alpha6     :    14.0000 
 Damping factor alpha8     :    16.0000 
 ad hoc parameters k1-k3   :    16.0000     1.3333    -4.0000 

 Edisp/kcal,au: -1.974671459166  -0.003146838941 
 E6   /kcal   :  -0.866533298 
 E8   /kcal   :  -1.108138161 
 % E8         :  56.117596474 

-------------------------   ----------------
Dispersion correction           -0.003146839
-------------------------   ----------------


-------------------------   --------------------
FINAL SINGLE POINT ENERGY      -306.979178651399
-------------------------   --------------------


                            ***************************************
                            *     ORCA property calculations      *
                            ***************************************

                                    ---------------------
                                    Active property flags
                                    ---------------------
   (+) Dipole Moment


------------------------------------------------------------------------------
                       ORCA ELECTRIC PROPERTIES CALCULATION
------------------------------------------------------------------------------

Dipole Moment Calculation                       ... on
Quadrupole Moment Calculation                   ... off
Polarizability Calculation                      ... off
GBWName                                         ... /scratch/ch1tk/orca.15473/wB97XD3_def2-SVP_toluene_S0_TDA6S_3-00.gbw
Electron density file                           ... /scratch/ch1tk/orca.15473/wB97XD3_def2-SVP_toluene_S0_TDA6S_3-00.scfp.tmp
The origin for moment calculation is the CENTER OF MASS  = ( 0.021084,  0.056253  0.000000)

-------------
DIPOLE MOMENT
-------------
                                X             Y             Z
Electronic contribution:     -2.44209       0.80937      -0.00000
Nuclear contribution   :      2.49675      -1.32009       0.00000
                        -----------------------------------------
Total Dipole Moment    :      0.05467      -0.51072      -0.00000
                        -----------------------------------------
Magnitude (a.u.)       :      0.51364
Magnitude (Debye)      :      1.30557


Timings for individual modules:

Sum of individual times         ...      259.929 sec (=   4.332 min)
GTO integral calculation        ...        0.275 sec (=   0.005 min)   0.1 %
SCF iterations                  ...      221.516 sec (=   3.692 min)  85.2 %
CIS module                      ...       38.138 sec (=   0.636 min)  14.7 %
                             ****ORCA TERMINATED NORMALLY****
TOTAL RUN TIME: 0 days 0 hours 4 minutes 20 seconds 168 msec
