
                                 *****************
                                 * O   R   C   A *
                                 *****************

           --- An Ab Initio, DFT and Semiempirical electronic structure package ---

                  #######################################################
                  #                        -***-                        #
                  #  Department of molecular theory and spectroscopy    #
                  #              Directorship: Frank Neese              #
                  # Max Planck Institute for Chemical Energy Conversion #
                  #                  D-45470 Muelheim/Ruhr              #
                  #                       Germany                       #
                  #                                                     #
                  #                  All rights reserved                #
                  #                        -***-                        #
                  #######################################################


                         Program Version 4.0.1.2 - RELEASE -


 With contributions from (in alphabetic order):
   Daniel Aravena         : Magnetic Properties
   Michael Atanasov       : Ab Initio Ligand Field Theory
   Ute Becker             : Parallelization
   Martin Brehm           : Molecular dynamics
   Dmytro Bykov           : SCF Hessian
   Vijay G. Chilkuri      : MRCI spin determinant printing
   Dipayan Datta          : RHF DLPNO-CCSD density
   Achintya Kumar Dutta   : EOM-CC, STEOM-CC
   Dmitry Ganyushin       : Spin-Orbit,Spin-Spin,Magnetic field MRCI
   Yang Guo               : DLPNO-NEVPT2, CIM, IAO-localization
   Andreas Hansen         : Spin unrestricted coupled pair/coupled cluster methods
   Lee Huntington         : MR-EOM, pCC
   Robert Izsak           : Overlap fitted RIJCOSX, COSX-SCS-MP3, EOM
   Christian Kollmar      : KDIIS, OOCD, Brueckner-CCSD(T), CCSD density
   Simone Kossmann        : Meta GGA functionals, TD-DFT gradient, OOMP2, MP2 Hessian
   Martin Krupicka        : AUTO-CI
   Dagmar Lenk            : GEPOL surface
   Dimitrios Liakos       : Extrapolation schemes; parallel MDCI
   Dimitrios Manganas     : ROCIS; embedding schemes
   Dimitrios Pantazis     : SARC Basis sets
   Taras Petrenko         : DFT Hessian,TD-DFT gradient, ASA, ECA, R-Raman, ABS, FL, XAS/XES, NRVS
   Peter Pinski           : DLPNO-MP2
   Christoph Reimann      : Effective Core Potentials
   Marius Retegan         : Local ZFS, SOC
   Christoph Riplinger    : Optimizer, TS searches, QM/MM, DLPNO-CCSD(T), (RO)-DLPNO pert. Triples
   Tobias Risthaus        : Range-separated hybrids, TD-DFT gradient, RPA, STAB
   Michael Roemelt        : Restricted open shell CIS
   Masaaki Saitow         : Open-shell DLPNO
   Barbara Sandhoefer     : DKH picture change effects
   Kantharuban Sivalingam : CASSCF convergence, NEVPT2, FIC-MRCI
   Georgi Stoychev        : AutoAux
   Boris Wezisla          : Elementary symmetry handling
   Frank Wennmohs         : Technical directorship


 We gratefully acknowledge several colleagues who have allowed us to
 interface, adapt or use parts of their codes:
   Stefan Grimme, W. Hujo, H. Kruse,             : VdW corrections, initial TS optimization,
                  C. Bannwarth                     DFT functionals, gCP, sTDA/sTD-DF
   Ed Valeev                                     : LibInt (2-el integral package), F12 methods
   Garnet Chan, S. Sharma, J. Yang, R. Olivares  : DMRG
   Ulf Ekstrom                                   : XCFun DFT Library
   Mihaly Kallay                                 : mrcc  (arbitrary order and MRCC methods)
   Andreas Klamt, Michael Diedenhofen            : otool_cosmo (COSMO solvation model)
   Jiri Pittner, Ondrej Demel                    : Mk-CCSD
   Frank Weinhold                                : gennbo (NPA and NBO analysis)
   Christopher J. Cramer and Donald G. Truhlar   : smd solvation model


 Your calculation uses the libint2 library for the computation of 2-el integrals
 For citations please refer to: http://libint.valeyev.net

 This ORCA versions uses:
   CBLAS   interface :  Fast vector & matrix operations
   LAPACKE interface :  Fast linear algebra routines
   SCALAPACK package :  Parallel linear algebra routines


Your calculation utilizes the atom-pairwise dispersion correction
with the zero-damping scheme (D30)
Cite in your paper:
S.Grimme, J.Antony, S.Ehrlich and H.Krieg, J.Chem.Phys., 132, (2010), 154104 
   

XCFun DFT library Copyright 2009-2010 Ulf Ekstrom and contributors.
See http://admol.org/xcfun for more information. This is free soft-
ware; see the source code for copying conditions. There is ABSOLUTELY
NO WARRANTY; not even for MERCHANTABILITY or FITNESS FOR A PARTICULAR
PURPOSE. For details see the documentation. Scientific users of this 
library should cite U. Ekstrom, L. Visscher, R. Bast, A. J. Thorvald-
sen and K. Ruud; J.Chem.Theor.Comp. 2010, DOI: 10.1021/ct100117s
XCFun Version 0.99 
Your calculation utilizes the basis: def2-SVP
   F. Weigend and R. Ahlrichs, Phys. Chem. Chem. Phys. 7, 3297 (2005).

Your calculation utilizes the auxiliary basis: def2/JK
   H-Ba, Hf-Rn: F. Weigend, J. Comput. Chem. 29, 167 (2008).

WARNING: Overwriting auxiliary coulomb basis with /JK basis!
================================================================================
                                        WARNINGS
                       Please study these warnings very carefully!
================================================================================

Warning: TCutStore was < 0. Adjusted to Thresh (uncritical)
INFO   : Checking CIS options ...

WARNING: CIS/ROCIS methods need fully converged wavefunctions
  ===> : Setting SCFConvForced true
         You can overwrite this default with %scf ConvForced false 


INFO   : the flag for use of LIBINT has been found!

================================================================================
                                       INPUT FILE
================================================================================
NAME = /scratch/ch1tk/orca.15336/wB97XD3_def2-SVP_toluene_S0_TDA6S_1-70.inp
|  1> ! UKS wB97X-D3 def2-SVP RIJCOSX def2/JK SlowConv
|  2>  
|  3> 
|  4> %scf
|  5> 	MaxIter		500
|  6> 	STABPerform	True
|  7> end
|  8> 
|  9> %tddft
| 10> 	NRoots 6
| 11> end
| 12> 
| 13> * xyz 0 1
| 14>  C                 -1.18578599   -1.17301779    0.00000000
| 15>  C                 -1.22528521    0.21672485    0.00000000
| 16>  C                 -0.03021307    0.94488843    0.00000000
| 17>  C                  1.19387265    0.26897053    0.00000000
| 18>  C                  1.21998389   -1.12396818    0.00000000
| 19>  C                  0.03366349   -1.85245673    0.00000000
| 20>  H                 -2.12142076   -1.73821028    0.00000000
| 21>  H                 -2.17044776    0.76362561    0.00000000
| 22>  H                  2.12866956    0.83920121    0.00000000
| 23>  H                  2.18175171   -1.64285600    0.00000000
| 24>  H                  0.05704252   -2.94432740    0.00000000
| 25>  O                 -0.11105943    2.29589847    0.00000000
| 26>  H                  1.45612492    2.95463455    0.00000000
| 27> end
| 28> 
| 29>                          ****END OF INPUT****
================================================================================

                       ****************************
                       * Single Point Calculation *
                       ****************************

---------------------------------
CARTESIAN COORDINATES (ANGSTROEM)
---------------------------------
  C     -1.185786   -1.173018    0.000000
  C     -1.225285    0.216725    0.000000
  C     -0.030213    0.944888    0.000000
  C      1.193873    0.268971    0.000000
  C      1.219984   -1.123968    0.000000
  C      0.033663   -1.852457    0.000000
  H     -2.121421   -1.738210    0.000000
  H     -2.170448    0.763626    0.000000
  H      2.128670    0.839201    0.000000
  H      2.181752   -1.642856    0.000000
  H      0.057043   -2.944327    0.000000
  O     -0.111059    2.295898    0.000000
  H      1.456125    2.954635    0.000000

----------------------------
CARTESIAN COORDINATES (A.U.)
----------------------------
  NO LB      ZA    FRAG     MASS         X           Y           Z
   0 C     6.0000    0    12.011   -2.240811   -2.216682    0.000000
   1 C     6.0000    0    12.011   -2.315453    0.409551    0.000000
   2 C     6.0000    0    12.011   -0.057094    1.785580    0.000000
   3 C     6.0000    0    12.011    2.256092    0.508281    0.000000
   4 C     6.0000    0    12.011    2.305435   -2.123992    0.000000
   5 C     6.0000    0    12.011    0.063615   -3.500636    0.000000
   6 H     1.0000    0     1.008   -4.008904   -3.284741    0.000000
   7 H     1.0000    0     1.008   -4.101552    1.443043    0.000000
   8 H     1.0000    0     1.008    4.022602    1.585860    0.000000
   9 H     1.0000    0     1.008    4.122913   -3.104548    0.000000
  10 H     1.0000    0     1.008    0.107795   -5.563972    0.000000
  11 O     8.0000    0    15.999   -0.209872    4.338619    0.000000
  12 H     1.0000    0     1.008    2.751677    5.583450    0.000000

--------------------------------
INTERNAL COORDINATES (ANGSTROEM)
--------------------------------
 C      0   0   0     0.000000000000     0.00000000     0.00000000
 C      1   0   0     1.390303849457     0.00000000     0.00000000
 C      2   1   0     1.399435464408   119.72614521     0.00000000
 C      3   2   1     1.398302848974   119.73915203     0.00000000
 C      4   3   2     1.393183421761   119.98059071     0.00000000
 C      5   4   3     1.392139238344   120.47909682     0.00000000
 H      1   2   3     1.093094219903   119.50705551   180.00000085
 H      2   1   3     1.091985662548   121.68304388   180.00000000
 H      4   3   2     1.094992370457   119.70992277   180.00000000
 H      5   4   3     1.092813757843   119.42141969   180.00000000
 H      6   5   4     1.092120936092   120.32638097   180.00000085
 O      3   2   1     1.353426858794   117.92958877   180.00000000
 H     12   3   2     1.700000002935   109.37394538   180.00000085

---------------------------
INTERNAL COORDINATES (A.U.)
---------------------------
 C      0   0   0     0.000000000000     0.00000000     0.00000000
 C      1   0   0     2.627293518410     0.00000000     0.00000000
 C      2   1   0     2.644549769828   119.72614521     0.00000000
 C      3   2   1     2.642409436842   119.73915203     0.00000000
 C      4   3   2     2.632735121448   119.98059071     0.00000000
 C      5   4   3     2.630761900756   120.47909682     0.00000000
 H      1   2   3     2.065648714189   119.50705551   180.00000085
 H      2   1   3     2.063553844385   121.68304388   180.00000000
 H      4   3   2     2.069235698897   119.70992277   180.00000000
 H      5   4   3     2.065118717705   119.42141969   180.00000000
 H      6   5   4     2.063809474335   120.32638097   180.00000085
 O      3   2   1     2.557606105415   117.92958877   180.00000000
 H     12   3   2     3.212534433212   109.37394538   180.00000085

---------------------
BASIS SET INFORMATION
---------------------
There are 3 groups of distinct atoms

 Group   1 Type C   : 7s4p1d contracted to 3s2p1d pattern {511/31/1}
 Group   2 Type H   : 4s1p contracted to 2s1p pattern {31/1}
 Group   3 Type O   : 7s4p1d contracted to 3s2p1d pattern {511/31/1}

Atom   0C    basis set group =>   1
Atom   1C    basis set group =>   1
Atom   2C    basis set group =>   1
Atom   3C    basis set group =>   1
Atom   4C    basis set group =>   1
Atom   5C    basis set group =>   1
Atom   6H    basis set group =>   2
Atom   7H    basis set group =>   2
Atom   8H    basis set group =>   2
Atom   9H    basis set group =>   2
Atom  10H    basis set group =>   2
Atom  11O    basis set group =>   3
Atom  12H    basis set group =>   2
-------------------------------
AUXILIARY BASIS SET INFORMATION
-------------------------------
There are 3 groups of distinct atoms

 Group   1 Type C   : 14s10p6d2f1g contracted to 10s8p5d1f1g pattern {5111111111/31111111/21111/2/1}
 Group   2 Type H   : 4s2p2d contracted to 2s2p2d pattern {31/11/11}
 Group   3 Type O   : 14s10p6d2f1g contracted to 10s8p4d2f1g pattern {5111111111/31111111/3111/11/1}

Atom   0C    basis set group =>   1
Atom   1C    basis set group =>   1
Atom   2C    basis set group =>   1
Atom   3C    basis set group =>   1
Atom   4C    basis set group =>   1
Atom   5C    basis set group =>   1
Atom   6H    basis set group =>   2
Atom   7H    basis set group =>   2
Atom   8H    basis set group =>   2
Atom   9H    basis set group =>   2
Atom  10H    basis set group =>   2
Atom  11O    basis set group =>   3
Atom  12H    basis set group =>   2
------------------------------------------------------------------------------
                           ORCA GTO INTEGRAL CALCULATION
                           -- RI-GTO INTEGRALS CHOSEN --
------------------------------------------------------------------------------

                         BASIS SET STATISTICS AND STARTUP INFO

Gaussian basis set:
 # of primitive gaussian shells          ...  114
 # of primitive gaussian functions       ...  210
 # of contracted shells                  ...   60
 # of contracted basis functions         ...  128
 Highest angular momentum                ...    2
 Maximum contraction depth               ...    5
Auxiliary gaussian basis set:
 # of primitive gaussian shells          ...  279
 # of primitive gaussian functions       ...  799
 # of contracted shells                  ...  211
 # of contracted aux-basis functions     ...  635
 Highest angular momentum                ...    4
 Maximum contraction depth               ...    5
Ratio of auxiliary to basis functions    ...  4.96
Integral package used                  ... LIBINT
 One Electron integrals                  ... done
 Ordering auxiliary basis shells         ... done
 Integral threshhold             Thresh  ...  1.000e-10
 Primitive cut-off               TCut    ...  1.000e-11
 Pre-screening matrix                    ... done
 Shell pair data                         ... 
 Ordering of the shell pairs             ... done (   0.000 sec) 1763 of 1830 pairs
 Determination of significant pairs      ... done (   0.000 sec)
 Creation of shell pair data             ... done (   0.001 sec)
 Storage of shell pair data              ... done (   0.001 sec)
 Shell pair data done in (   0.002 sec)
 Computing two index integrals           ... done
 Cholesky decomposition of the V-matrix  ... done


Timings:
 Total evaluation time                   ...   0.299 sec (  0.005 min)
 One electron matrix time                ...   0.013 sec (  0.000 min) =  4.5%
 Schwartz matrix evaluation time         ...   0.133 sec (  0.002 min) = 44.7%
 Two index repulsion integral time       ...   0.081 sec (  0.001 min) = 27.1%
 Cholesky decomposition of V             ...   0.045 sec (  0.001 min) = 15.0%
 Three index repulsion integral time     ...   0.000 sec (  0.000 min) =  0.0%

-------------------------------------------------------------------------------
                                 ORCA SCF
-------------------------------------------------------------------------------

------------
SCF SETTINGS
------------
Hamiltonian:
 Density Functional     Method          .... DFT(GTOs)
 Exchange Functional    Exchange        .... WB97X-D3
 Correlation Functional Correlation     .... WB97X-D3
 Gradients option       PostSCFGGA      .... off
 Hybrid DFT is turned on
   Fraction HF Exchange ScalHFX         ....  0.195728
   Scaling of DF-GGA-X  ScalDFX         ....  0.000000
   Scaling of DF-GGA-C  ScalDFC         ....  1.000000
   Scaling of DF-LDA-C  ScalLDAC        ....  1.000000
   Perturbative correction              ....  0.000000
 Long-range corrected/Screened/Range-Separated Hybrid DFT is turned on
   Amount of maximum screened exact exchange              ....  0.804272
   Range separation parameter mu (erf(mu*r12)/r12)        ....  0.250000
 RI-approximation to the Coulomb term is turned on
   Number of auxiliary basis functions  .... 635
   RIJ-COSX (HFX calculated with COS-X)).... on


General Settings:
 Integral files         IntName         .... /scratch/ch1tk/orca.15336/wB97XD3_def2-SVP_toluene_S0_TDA6S_1-70
 Hartree-Fock type      HFTyp           .... UHF
 Total Charge           Charge          ....    0
 Multiplicity           Mult            ....    1
 Number of Electrons    NEL             ....   50
 Basis Dimension        Dim             ....  128
 Nuclear Repulsion      ENuc            ....    268.4322937312 Eh

Convergence Acceleration:
 DIIS                   CNVDIIS         .... on
   Start iteration      DIISMaxIt       ....     0
   Startup error        DIISStart       ....  0.200000
   # of expansion vecs  DIISMaxEq       ....     5
   Bias factor          DIISBfac        ....   1.050
   Max. coefficient     DIISMaxC        ....  10.000
 Newton-Raphson         CNVNR           .... off
 SOSCF                  CNVSOSCF        .... off
 Level Shifting         CNVShift        .... on
   Level shift para.    LevelShift      ....    0.2500
   Turn off err/grad.   ShiftErr        ....    0.0000
 Zerner damping         CNVZerner       .... off
 Static damping         CNVDamp         .... on
   Fraction old density DampFac         ....    0.8500
   Max. Damping (<1)    DampMax         ....    0.9800
   Min. Damping (>=0)   DampMin         ....    0.0000
   Turn off err/grad.   DampErr         ....    0.0300
 Fernandez-Rico         CNVRico         .... off

SCF Procedure:
 Maximum # iterations   MaxIter         ....   500
 SCF integral mode      SCFMode         .... Direct
   Integral package                     .... LIBINT
 Reset frequeny         DirectResetFreq ....    20
 Integral Threshold     Thresh          ....  1.000e-10 Eh
 Primitive CutOff       TCut            ....  1.000e-11 Eh

Convergence Tolerance:
 Convergence Check Mode ConvCheckMode   .... Total+1el-Energy
 Convergence forced     ConvForced      .... 1
 Energy Change          TolE            ....  1.000e-06 Eh
 1-El. energy change                    ....  1.000e-03 Eh
 DIIS Error             TolErr          ....  1.000e-06


Diagonalization of the overlap matrix:
Smallest eigenvalue                        ... 2.787e-04
Time for diagonalization                   ...    0.004 sec
Threshold for overlap eigenvalues          ... 1.000e-08
Number of eigenvalues below threshold      ... 0
Time for construction of square roots      ...    0.004 sec
Total time needed                          ...    0.008 sec

-------------------
DFT GRID GENERATION
-------------------

General Integration Accuracy     IntAcc      ...  4.340
Radial Grid Type                 RadialGrid  ... Gauss-Chebyshev
Angular Grid (max. acc.)         AngularGrid ... Lebedev-110
Angular grid pruning method      GridPruning ... 3 (G Style)
Weight generation scheme         WeightScheme... Becke
Basis function cutoff            BFCut       ...    1.0000e-10
Integration weight cutoff        WCut        ...    1.0000e-14
Grids for H and He will be reduced by one unit

# of grid points (after initial pruning)     ...  16416 (   0.0 sec)
# of grid points (after weights+screening)   ...  15348 (   0.0 sec)
nearest neighbour list constructed           ...    0.0 sec
Grid point re-assignment to atoms done       ...    0.0 sec
Grid point division into batches done        ...    0.0 sec
Reduced shell lists constructed in    0.2 sec

Total number of grid points                  ...    15348
Total number of batches                      ...      245
Average number of points per batch           ...       62
Average number of grid points per atom       ...     1181
Average number of shells per batch           ...    44.22 (73.69%)
Average number of basis functions per batch  ...    93.94 (73.39%)
Average number of large shells per batch     ...    35.65 (80.62%)
Average number of large basis fcns per batch ...    74.78 (79.61%)
Maximum spatial batch extension              ...  20.15, 17.04, 25.60 au
Average spatial batch extension              ...   3.83,  3.52,  5.46 au

Time for grid setup =    0.199 sec

------------------------------
INITIAL GUESS: MODEL POTENTIAL
------------------------------
Loading Hartree-Fock densities                     ... done
Calculating cut-offs                               ... done
Setting up the integral package                    ... done
Initializing the effective Hamiltonian             ... done
Starting the Coulomb interaction                   ... done (   0.1 sec)
Reading the grid                                   ... done
Mapping shells                                     ... done
Starting the XC term evaluation                    ... done (   0.2 sec)
  promolecular density results
     # of electrons  =     50.000721456
     EX              =    -40.512598798
     EC              =     -1.638463934
     EX+EC           =    -42.151062733
Transforming the Hamiltonian                       ... done (   0.0 sec)
Diagonalizing the Hamiltonian                      ... done (   0.0 sec)
Back transforming the eigenvectors                 ... done (   0.0 sec)
Now organizing SCF variables                       ... done
                      ------------------
                      INITIAL GUESS DONE (   0.6 sec)
                      ------------------
--------------------
COSX GRID GENERATION
--------------------

General Integration Accuracy     IntAcc      ...  3.340
Radial Grid Type                 RadialGrid  ... Gauss-Chebyshev
Angular Grid (max. acc.)         AngularGrid ... Lebedev-50
Angular grid pruning method      GridPruning ... 3 (G Style)
Weight generation scheme         WeightScheme... Becke
Basis function cutoff            BFCut       ...    1.0000e-10
Integration weight cutoff        WCut        ...    1.0000e-14
Grids for H and He will be reduced by one unit

# of grid points (after initial pruning)     ...   5980 (   0.0 sec)
# of grid points (after weights+screening)   ...   5660 (   0.0 sec)
nearest neighbour list constructed           ...    0.0 sec
Grid point re-assignment to atoms done       ...    0.0 sec
Grid point division into batches done        ...    0.0 sec
Reduced shell lists constructed in    0.1 sec

Total number of grid points                  ...     5660
Total number of batches                      ...       95
Average number of points per batch           ...       59
Average number of grid points per atom       ...      435
Average number of shells per batch           ...    47.19 (78.65%)
Average number of basis functions per batch  ...   101.10 (78.99%)
Average number of large shells per batch     ...    38.95 (82.54%)
Average number of large basis fcns per batch ...    83.01 (82.10%)
Maximum spatial batch extension              ...  16.61, 14.62, 35.81 au
Average spatial batch extension              ...   4.78,  4.69,  7.48 au

Overlap Fitting                  UseSFitting ... on
Constructing numerical overlap ... done (      0.0 sec)
Inverting numerical overlap    ... done (      0.0 sec)
Obtaining analytic overlap     ... done (      0.0 sec)
Final contraction and storage  ... done (      0.0 sec)


General Integration Accuracy     IntAcc      ...  3.670
Radial Grid Type                 RadialGrid  ... Gauss-Chebyshev
Angular Grid (max. acc.)         AngularGrid ... Lebedev-50
Angular grid pruning method      GridPruning ... 3 (G Style)
Weight generation scheme         WeightScheme... Becke
Basis function cutoff            BFCut       ...    1.0000e-10
Integration weight cutoff        WCut        ...    1.0000e-14
Grids for H and He will be reduced by one unit

# of grid points (after initial pruning)     ...   7582 (   0.0 sec)
# of grid points (after weights+screening)   ...   7153 (   0.0 sec)
nearest neighbour list constructed           ...    0.0 sec
Grid point re-assignment to atoms done       ...    0.0 sec
Grid point division into batches done        ...    0.0 sec
Reduced shell lists constructed in    0.1 sec

Total number of grid points                  ...     7153
Total number of batches                      ...      118
Average number of points per batch           ...       60
Average number of grid points per atom       ...      550
Average number of shells per batch           ...    46.56 (77.61%)
Average number of basis functions per batch  ...    99.39 (77.65%)
Average number of large shells per batch     ...    37.89 (81.38%)
Average number of large basis fcns per batch ...    79.84 (80.33%)
Maximum spatial batch extension              ...  17.81, 16.53, 39.19 au
Average spatial batch extension              ...   4.41,  4.28,  7.07 au

Overlap Fitting                  UseSFitting ... on
Constructing numerical overlap ... done (      0.0 sec)
Inverting numerical overlap    ... done (      0.0 sec)
Obtaining analytic overlap     ... done (      0.0 sec)
Final contraction and storage  ... done (      0.0 sec)


General Integration Accuracy     IntAcc      ...  4.010
Radial Grid Type                 RadialGrid  ... Gauss-Chebyshev
Angular Grid (max. acc.)         AngularGrid ... Lebedev-110
Angular grid pruning method      GridPruning ... 3 (G Style)
Weight generation scheme         WeightScheme... Becke
Basis function cutoff            BFCut       ...    1.0000e-10
Integration weight cutoff        WCut        ...    1.0000e-14
Grids for H and He will be reduced by one unit

# of grid points (after initial pruning)     ...  14238 (   0.0 sec)
# of grid points (after weights+screening)   ...  13329 (   0.0 sec)
nearest neighbour list constructed           ...    0.0 sec
Grid point re-assignment to atoms done       ...    0.0 sec
Grid point division into batches done        ...    0.0 sec
Reduced shell lists constructed in    0.1 sec

Total number of grid points                  ...    13329
Total number of batches                      ...      214
Average number of points per batch           ...       62
Average number of grid points per atom       ...     1025
Average number of shells per batch           ...    44.86 (74.76%)
Average number of basis functions per batch  ...    95.35 (74.49%)
Average number of large shells per batch     ...    36.30 (80.93%)
Average number of large basis fcns per batch ...    76.05 (79.76%)
Maximum spatial batch extension              ...  20.77, 15.92, 31.02 au
Average spatial batch extension              ...   4.01,  3.59,  5.55 au

Overlap Fitting                  UseSFitting ... on
Constructing numerical overlap ... done (      0.1 sec)
Inverting numerical overlap    ... done (      0.0 sec)
Obtaining analytic overlap     ... done (      0.0 sec)
Final contraction and storage  ... done (      0.0 sec)

Time for X-Grid setup             =    0.610 sec
--------------
SCF ITERATIONS
--------------
ITER       Energy         Delta-E        Max-DP      RMS-DP      [F,P]     Damp
               ***  Starting incremental Fock matrix formation  ***
  0   -306.7886630028   0.000000000000 0.02335279  0.00073845  0.2765922 0.8500
  1   -306.8395803054  -0.050917302608 0.02371829  0.00071530  0.2217966 0.8500
                               ***Turning on DIIS***
  2   -306.8769640696  -0.037383764254 0.01906376  0.00058303  0.1615647 0.8500
  3   -306.9029145900  -0.025950520346 0.01063932  0.00041402  0.1126214 0.8500
  4   -306.9223765250  -0.019461935052 0.00678676  0.00031558  0.0890773 0.8500
  5   -306.9375486091  -0.015172084080 0.00542045  0.00025411  0.0760850 0.8500
  6   -306.9499174966  -0.012368887439 0.00472878  0.00021159  0.0660467 0.8500
  7   -306.9602128229  -0.010295326374 0.00443391  0.00018033  0.0570994 0.8500
  8   -306.9688817630  -0.008668940029 0.00382125  0.00015485  0.0481981 0.8500
  9   -306.9761686620  -0.007286899065 0.00315166  0.00013263  0.0405857 0.8500
 10   -306.9822975971  -0.006128935051 0.00265588  0.00011313  0.0345576 0.8500
 11   -306.9874661791  -0.005168582060 0.01537865  0.00064171  0.0295893 0.0000
 12   -307.0162062991  -0.028740119956 0.00041316  0.00002054  0.0009853 0.0000
               *** Restarting incremental Fock matrix formation ***
                                   *** Resetting DIIS ***
 13   -307.0162311509  -0.000024851845 0.00040203  0.00001166  0.0006349 0.0000
 14   -307.0162337046  -0.000002553689 0.00027079  0.00000615  0.0006570 0.0000
 15   -307.0162347418  -0.000001037190 0.00018029  0.00000627  0.0002454 0.0000
                 **** Energy Check signals convergence ****

               *****************************************************
               *                     SUCCESS                       *
               *           SCF CONVERGED AFTER  16 CYCLES          *
               *****************************************************


------------------------------------------------------------------------------
                          SCF STABILITY ANALYSIS                              
------------------------------------------------------------------------------


---------------
TD-DFT XC SETUP
---------------

DFT calculation                         ... on
Name of the grid file                   ... /scratch/ch1tk/orca.15336/wB97XD3_def2-SVP_toluene_S0_TDA6S_1-70.grid.tmp
Exchange functional (SCF)               ... WB97X-D3
Exchange functional (TD-DFT)            ... WB97X-D3
Correlation functional (SCF)            ... WB97X-D3
Correlation functional (TD-DFT)         ... WB97X-D3
Hybrid DFT                              ... on
   Exchange mixing (SCF)                ...  0.196
   Exchange mixing (TD-DFT)             ...  0.196
   GGA exch. scaling(SCF)               ...  0.000
   GGA exch. scaling (TD-DFT)           ...  0.000
   GGA corr. scaling (SCF)              ...  1.000
   GGA corr. scaling (TD-DFT)           ...  1.000
Range-Separated Exchange                ... on
   Range Range separation parameter mu  .... 0.250
   Max. amount of RS exchange (SCF)     ...  0.804
   Max. amount of RS exchange (TD-DFT)  ...  0.804

Electron density on the grid   ... found on disk
Building xc-kernel on the grid ... done
                    *** TD-DFT CALCULATION INITIALIZED ***

                       ****Iteration    0****

   Memory handling for direct AO based CIS:
   Memory per vector needed      ...     1 MB
   Memory needed                 ...     7 MB
   Memory available              ...  1024 MB
   Number of vectors per batch   ...   783
   Number of batches             ...     1
   Time for densities:     0.007
   Time for XC-Integration:     1.540
   Time for K (COSX):    10.274
   Time for RI-J (Direct):     1.572
   Time for Sigma-Completion:     0.028
   Lowest Energy          :     0.059119488772
   Maximum Energy change  :     0.086646188406 (vector 2)
   Maximum residual norm  :     0.022199170452

                       ****Iteration    1****
   Time for densities:     0.003
   Time for XC-Integration:     0.823
   Time for K (COSX):     9.975
   Time for RI-J (Direct):     0.808
   Time for Sigma-Completion:     0.014
   Lowest Energy          :    -0.009019410185
   Maximum Energy change  :     0.068138898957 (vector 0)
   Maximum residual norm  :     0.002402437525

                       ****Iteration    2****
   Time for densities:     0.003
   Time for XC-Integration:     0.837
   Time for K (COSX):     9.901
   Time for RI-J (Direct):     0.827
   Time for Sigma-Completion:     0.014
   Lowest Energy          :    -0.014495613624
   Maximum Energy change  :     0.005476203439 (vector 0)
   Maximum residual norm  :     0.000143887242

                       ****Iteration    3****
   Time for densities:     0.003
   Time for XC-Integration:     0.839
   Time for K (COSX):    10.104
   Time for RI-J (Direct):     0.847
   Time for Sigma-Completion:     0.014
   Lowest Energy          :    -0.014787984340
   Maximum Energy change  :     0.000292370715 (vector 0)
   Maximum residual norm  :     0.000014561261

      *** CONVERGENCE OF RESIDUAL NORM REACHED ***

----------------------------- 
SCF STABILITY ANALYSIS RESULT 
----------------------------- 

UHF/UKS->UHF/UKS - singlet - internal

   Root    Eigenvalue (au) 
     0      -0.014788 
     1       0.027379 
     2       0.062457 

Stability Analysis indicates an UNSTABLE HF/KS wave function with one negative eigenvalue.

Since this is UHF/UKS, we will restart the SCF using a new guess based on the eigenvector 
associated with the negative eigenvalue. Because there is no guarantee that the restart   
will result in a stable solution, the user should check the stability of the resulting    
wave function in a separate calculation using the MOREAD guess feature.

Obtain new guess               ... done 

Total time for performing the stability analysis:    48.488sec

--------------------------
SCF ITERATIONS (restarted)
--------------------------
ITER       Energy         Delta-E        Max-DP      RMS-DP      [F,P]     Damp
               ***  Starting incremental Fock matrix formation  ***
  0   -307.0152493376   0.000000000000 0.00134878  0.00002461  0.0106417 0.8500
  1   -307.0153384087  -0.000089071009 0.00154765  0.00002628  0.0083264 0.8500
                               ***Turning on DIIS***
  2   -307.0154200121  -0.000081603491 0.00969261  0.00015670  0.0061685 0.0000
  3   -307.0159669054  -0.000546893297 0.00400943  0.00005250  0.0067265 0.0000
  4   -307.0161137845  -0.000146879028 0.00326645  0.00004928  0.0015282 0.0000
  5   -307.0162423238  -0.000128539286 0.00294395  0.00004344  0.0010672 0.0000
  6   -307.0163415057  -0.000099181985 0.00314546  0.00004708  0.0007124 0.0000
  7   -307.0164349903  -0.000093484538 0.00217473  0.00003423  0.0005251 0.0000
  8   -307.0164942693  -0.000059279016 0.00288761  0.00004594  0.0004095 0.0000
  9   -307.0165641007  -0.000069831400 0.00188322  0.00002976  0.0001740 0.0000
 10   -307.0166036430  -0.000039542314 0.00138391  0.00002223  0.0002305 0.0000
 11   -307.0166305596  -0.000026916573 0.00017160  0.00000312  0.0002583 0.0000
 12   -307.0166318263  -0.000001266746 0.00053040  0.00000782  0.0003733 0.0000
 13   -307.0166224560   0.000009370364 0.00028295  0.00000464  0.0004820 0.0000
 14   -307.0166168479   0.000005608055 0.00097792  0.00001447  0.0005023 0.0000
 15   -307.0166342194  -0.000017371455 0.00175787  0.00002735  0.0003523 0.0000
 16   -307.0166643366  -0.000030117255 0.00213953  0.00003335  0.0001992 0.0000
 17   -307.0166966881  -0.000032351487 0.00191536  0.00003029  0.0001664 0.0000
 18   -307.0167221785  -0.000025490393 0.00219868  0.00003466  0.0001306 0.0000
 19   -307.0167470994  -0.000024920862 0.00168167  0.00002694  0.0000918 0.0000
               *** Restarting incremental Fock matrix formation ***
                                   *** Resetting DIIS ***
 20   -307.0167635106  -0.000016411250 0.00059271  0.00001068  0.0000816 0.0000
 21   -307.0167691575  -0.000005646849 0.00020631  0.00000389  0.0000984 0.0000
 22   -307.0167710049  -0.000001847389 0.00009396  0.00000165  0.0001161 0.0000
                 **** Energy Check signals convergence ****

               *****************************************************
               *                     SUCCESS                       *
               *           SCF CONVERGED AFTER  23 CYCLES          *
               *****************************************************

Setting up the final grid:

General Integration Accuracy     IntAcc      ...  4.670
Radial Grid Type                 RadialGrid  ... Gauss-Chebyshev
Angular Grid (max. acc.)         AngularGrid ... Lebedev-302
Angular grid pruning method      GridPruning ... 3 (G Style)
Weight generation scheme         WeightScheme... Becke
Basis function cutoff            BFCut       ...    1.0000e-10
Integration weight cutoff        WCut        ...    1.0000e-14
Grids for H and He will be reduced by one unit

# of grid points (after initial pruning)     ...  63848 (   0.0 sec)
# of grid points (after weights+screening)   ...  59074 (   0.1 sec)
nearest neighbour list constructed           ...    0.0 sec
Grid point re-assignment to atoms done       ...    0.0 sec
Grid point division into batches done        ...    0.2 sec
Reduced shell lists constructed in    0.7 sec

Total number of grid points                  ...    59074
Total number of batches                      ...      930
Average number of points per batch           ...       63
Average number of grid points per atom       ...     4544
Average number of shells per batch           ...    40.20 (66.99%)
Average number of basis functions per batch  ...    84.96 (66.38%)
Average number of large shells per batch     ...    31.81 (79.13%)
Average number of large basis fcns per batch ...    66.19 (77.90%)
Maximum spatial batch extension              ...  16.60, 16.67, 23.18 au
Average spatial batch extension              ...   2.57,  2.48,  3.10 au

Final grid set up in    0.8 sec
Final integration                            ... done (   1.1 sec)
Change in XC energy                          ...     0.000960283
Integrated number of electrons               ...    49.999765446
Previous integrated no of electrons          ...    49.998773815
Old exchange energy                            =    -13.402192946 Eh
New exchange energy                            =    -13.402435545 Eh
Exchange energy change after final integration =     -0.000242598 Eh
Total energy after final integration           =   -307.016054083 Eh
Final COS-X integration done in                =     7.098 sec

----------------
TOTAL SCF ENERGY
----------------

Total Energy       :         -307.01605408 Eh           -8354.33156 eV

Components:
Nuclear Repulsion  :          268.43229373 Eh            7304.41406 eV
Electronic Energy  :         -575.44834781 Eh          -15658.74562 eV
One Electron Energy:         -946.83990929 Eh          -25764.82379 eV
Two Electron Energy:          371.39156148 Eh           10106.07817 eV

Virial components:
Potential Energy   :         -610.65479608 Eh          -16616.76178 eV
Kinetic Energy     :          303.63874200 Eh            8262.43022 eV
Virial Ratio       :            2.01112280


DFT components:
N(Alpha)           :       24.999877650892 electrons
N(Beta)            :       24.999887794616 electrons
N(Total)           :       49.999765445508 electrons
E(XC)              :      -29.655528161024 Eh       

---------------
SCF CONVERGENCE
---------------

  Last Energy change         ...   -7.6340e-07  Tolerance :   1.0000e-06
  Last MAX-Density change    ...    0.0000e+00  Tolerance :   1.0000e-05
  Last RMS-Density change    ...    0.0000e+00  Tolerance :   1.0000e-06
  Last DIIS Error            ...    1.3101e-04  Tolerance :   1.0000e-06

             **** THE GBW FILE WAS UPDATED (/scratch/ch1tk/orca.15336/wB97XD3_def2-SVP_toluene_S0_TDA6S_1-70.gbw) ****
             **** DENSITY FILE WAS UPDATED (/scratch/ch1tk/orca.15336/wB97XD3_def2-SVP_toluene_S0_TDA6S_1-70.scfp.tmp) ****
             **** ENERGY FILE WAS UPDATED (/scratch/ch1tk/orca.15336/wB97XD3_def2-SVP_toluene_S0_TDA6S_1-70.en.tmp) ****

     --------------------------------------------------------------------
                                      WARNING
     A stability analysis of the first UHF/UKS SCF solution was performed
     and an instability detected. The result was used as a guess for
     a second SCF, which has converged. There is no guarantee that the
     current solution is stable - it is up to you to rerun the stability
     analysis using the now stored solution as a guess and verify.
     --------------------------------------------------------------------

----------------------
UHF SPIN CONTAMINATION
----------------------

Warning: in a DFT calculation there is little theoretical justification to 
         calculate <S**2> as in Hartree-Fock theory. We will do it anyways
         but you should keep in mind that the values have only limited relevance

Expectation value of <S**2>     :     0.186496
Ideal value S*(S+1) for S=0.0   :     0.000000
Deviation                       :     0.186496

----------------
ORBITAL ENERGIES
----------------
                 SPIN UP ORBITALS
  NO   OCC          E(Eh)            E(eV) 
   0   1.0000     -19.292465      -524.9746 
   1   1.0000     -10.353597      -281.7357 
   2   1.0000     -10.298030      -280.2236 
   3   1.0000     -10.297848      -280.2187 
   4   1.0000     -10.293962      -280.1130 
   5   1.0000     -10.291532      -280.0468 
   6   1.0000     -10.286249      -279.9031 
   7   1.0000      -1.115031       -30.3415 
   8   1.0000      -0.960627       -26.1400 
   9   1.0000      -0.859243       -23.3812 
  10   1.0000      -0.834855       -22.7176 
  11   1.0000      -0.719184       -19.5700 
  12   1.0000      -0.692921       -18.8553 
  13   1.0000      -0.619225       -16.8500 
  14   1.0000      -0.574858       -15.6427 
  15   1.0000      -0.564127       -15.3507 
  16   1.0000      -0.528994       -14.3947 
  17   1.0000      -0.523179       -14.2364 
  18   1.0000      -0.511974       -13.9315 
  19   1.0000      -0.461946       -12.5702 
  20   1.0000      -0.450279       -12.2527 
  21   1.0000      -0.434295       -11.8178 
  22   1.0000      -0.419980       -11.4282 
  23   1.0000      -0.345260        -9.3950 
  24   1.0000      -0.304539        -8.2869 
  25   0.0000      -0.056228        -1.5301 
  26   0.0000       0.066736         1.8160 
  27   0.0000       0.086203         2.3457 
  28   0.0000       0.149365         4.0644 
  29   0.0000       0.188204         5.1213 
  30   0.0000       0.204684         5.5697 
  31   0.0000       0.234329         6.3764 
  32   0.0000       0.243108         6.6153 
  33   0.0000       0.254805         6.9336 
  34   0.0000       0.312125         8.4934 
  35   0.0000       0.360002         9.7962 
  36   0.0000       0.377642        10.2762 
  37   0.0000       0.388950        10.5839 
  38   0.0000       0.420824        11.4512 
  39   0.0000       0.448254        12.1976 
  40   0.0000       0.501488        13.6462 
  41   0.0000       0.503854        13.7106 
  42   0.0000       0.514606        14.0031 
  43   0.0000       0.536986        14.6121 
  44   0.0000       0.543030        14.7766 
  45   0.0000       0.564454        15.3596 
  46   0.0000       0.589250        16.0343 
  47   0.0000       0.602609        16.3978 
  48   0.0000       0.633895        17.2492 
  49   0.0000       0.637137        17.3374 
  50   0.0000       0.640639        17.4327 
  51   0.0000       0.680140        18.5075 
  52   0.0000       0.701453        19.0875 
  53   0.0000       0.710823        19.3425 
  54   0.0000       0.735886        20.0245 
  55   0.0000       0.750077        20.4106 
  56   0.0000       0.767814        20.8933 
  57   0.0000       0.787141        21.4192 
  58   0.0000       0.807335        21.9687 
  59   0.0000       0.821245        22.3472 
  60   0.0000       0.835931        22.7468 
  61   0.0000       0.841424        22.8963 
  62   0.0000       0.871446        23.7133 
  63   0.0000       0.910113        24.7654 
  64   0.0000       0.915772        24.9194 
  65   0.0000       0.974561        26.5191 
  66   0.0000       1.020552        27.7706 
  67   0.0000       1.077458        29.3191 
  68   0.0000       1.115005        30.3408 
  69   0.0000       1.168319        31.7916 
  70   0.0000       1.231016        33.4976 
  71   0.0000       1.275834        34.7172 
  72   0.0000       1.313286        35.7363 
  73   0.0000       1.335319        36.3359 
  74   0.0000       1.337243        36.3882 
  75   0.0000       1.363473        37.1020 
  76   0.0000       1.370781        37.3008 
  77   0.0000       1.397437        38.0262 
  78   0.0000       1.459508        39.7152 
  79   0.0000       1.514780        41.2193 
  80   0.0000       1.569504        42.7084 
  81   0.0000       1.585331        43.1390 
  82   0.0000       1.594819        43.3972 
  83   0.0000       1.755977        47.7826 
  84   0.0000       1.763656        47.9915 
  85   0.0000       1.789803        48.7030 
  86   0.0000       1.832603        49.8677 
  87   0.0000       1.844832        50.2004 
  88   0.0000       1.845910        50.2298 
  89   0.0000       1.865577        50.7649 
  90   0.0000       1.886933        51.3460 
  91   0.0000       1.900144        51.7055 
  92   0.0000       1.901538        51.7435 
  93   0.0000       1.925874        52.4057 
  94   0.0000       1.985637        54.0319 
  95   0.0000       2.024171        55.0805 
  96   0.0000       2.045353        55.6569 
  97   0.0000       2.075391        56.4743 
  98   0.0000       2.081901        56.6514 
  99   0.0000       2.138925        58.2031 
 100   0.0000       2.195991        59.7560 
 101   0.0000       2.233793        60.7846 
 102   0.0000       2.249052        61.1998 
 103   0.0000       2.291557        62.3564 
 104   0.0000       2.314652        62.9849 
 105   0.0000       2.364360        64.3375 
 106   0.0000       2.367947        64.4351 
 107   0.0000       2.406221        65.4766 
 108   0.0000       2.441925        66.4481 
 109   0.0000       2.448735        66.6335 
 110   0.0000       2.604466        70.8711 
 111   0.0000       2.644857        71.9702 
 112   0.0000       2.680893        72.9508 
 113   0.0000       2.693042        73.2814 
 114   0.0000       2.742559        74.6288 
 115   0.0000       2.806637        76.3725 
 116   0.0000       2.825192        76.8774 
 117   0.0000       2.828573        76.9694 
 118   0.0000       2.862521        77.8932 
 119   0.0000       2.955713        80.4290 
 120   0.0000       2.981312        81.1256 
 121   0.0000       3.077109        83.7324 
 122   0.0000       3.107121        84.5491 
 123   0.0000       3.121975        84.9532 
 124   0.0000       3.254000        88.5458 
 125   0.0000       3.457390        94.0804 
 126   0.0000       3.500081        95.2421 
 127   0.0000       3.795242       103.2738 

                 SPIN DOWN ORBITALS
  NO   OCC          E(Eh)            E(eV) 
   0   1.0000     -19.300260      -525.1868 
   1   1.0000     -10.353443      -281.7315 
   2   1.0000     -10.297999      -280.2228 
   3   1.0000     -10.297923      -280.2207 
   4   1.0000     -10.294085      -280.1163 
   5   1.0000     -10.292004      -280.0597 
   6   1.0000     -10.286205      -279.9019 
   7   1.0000      -1.137757       -30.9599 
   8   1.0000      -0.962616       -26.1941 
   9   1.0000      -0.859874       -23.3984 
  10   1.0000      -0.837879       -22.7999 
  11   1.0000      -0.721777       -19.6406 
  12   1.0000      -0.694732       -18.9046 
  13   1.0000      -0.621312       -16.9068 
  14   1.0000      -0.580988       -15.8095 
  15   1.0000      -0.566987       -15.4285 
  16   1.0000      -0.531358       -14.4590 
  17   1.0000      -0.523390       -14.2422 
  18   1.0000      -0.516321       -14.0498 
  19   1.0000      -0.469765       -12.7830 
  20   1.0000      -0.457379       -12.4459 
  21   1.0000      -0.438814       -11.9407 
  22   1.0000      -0.426391       -11.6027 
  23   1.0000      -0.345297        -9.3960 
  24   1.0000      -0.308156        -8.3853 
  25   0.0000      -0.043841        -1.1930 
  26   0.0000       0.066470         1.8087 
  27   0.0000       0.085657         2.3308 
  28   0.0000       0.149074         4.0565 
  29   0.0000       0.188237         5.1222 
  30   0.0000       0.204435         5.5630 
  31   0.0000       0.234418         6.3788 
  32   0.0000       0.243286         6.6201 
  33   0.0000       0.254680         6.9302 
  34   0.0000       0.308775         8.4022 
  35   0.0000       0.360460         9.8086 
  36   0.0000       0.377525        10.2730 
  37   0.0000       0.388691        10.5768 
  38   0.0000       0.418375        11.3846 
  39   0.0000       0.448153        12.1949 
  40   0.0000       0.502616        13.6769 
  41   0.0000       0.503402        13.6983 
  42   0.0000       0.526562        14.3285 
  43   0.0000       0.536547        14.6002 
  44   0.0000       0.564324        15.3560 
  45   0.0000       0.565353        15.3840 
  46   0.0000       0.592100        16.1119 
  47   0.0000       0.603586        16.4244 
  48   0.0000       0.633683        17.2434 
  49   0.0000       0.636399        17.3173 
  50   0.0000       0.640403        17.4263 
  51   0.0000       0.677275        18.4296 
  52   0.0000       0.701196        19.0805 
  53   0.0000       0.710774        19.3411 
  54   0.0000       0.734921        19.9982 
  55   0.0000       0.750045        20.4098 
  56   0.0000       0.767487        20.8844 
  57   0.0000       0.786964        21.4144 
  58   0.0000       0.807104        21.9624 
  59   0.0000       0.821167        22.3451 
  60   0.0000       0.835836        22.7443 
  61   0.0000       0.841248        22.8915 
  62   0.0000       0.871341        23.7104 
  63   0.0000       0.908736        24.7280 
  64   0.0000       0.914905        24.8958 
  65   0.0000       0.974158        26.5082 
  66   0.0000       1.019731        27.7483 
  67   0.0000       1.075077        29.2543 
  68   0.0000       1.114138        30.3172 
  69   0.0000       1.166012        31.7288 
  70   0.0000       1.231614        33.5139 
  71   0.0000       1.276563        34.7371 
  72   0.0000       1.312771        35.7223 
  73   0.0000       1.334957        36.3260 
  74   0.0000       1.337226        36.3878 
  75   0.0000       1.364289        37.1242 
  76   0.0000       1.372032        37.3349 
  77   0.0000       1.397490        38.0276 
  78   0.0000       1.492834        40.6221 
  79   0.0000       1.527731        41.5717 
  80   0.0000       1.584414        43.1141 
  81   0.0000       1.586250        43.1641 
  82   0.0000       1.618361        44.0378 
  83   0.0000       1.755706        47.7752 
  84   0.0000       1.765097        48.0307 
  85   0.0000       1.789741        48.7013 
  86   0.0000       1.832846        49.8743 
  87   0.0000       1.844801        50.1996 
  88   0.0000       1.845779        50.2262 
  89   0.0000       1.865321        50.7580 
  90   0.0000       1.886943        51.3463 
  91   0.0000       1.899960        51.7005 
  92   0.0000       1.901844        51.7518 
  93   0.0000       1.927919        52.4613 
  94   0.0000       1.988319        54.1049 
  95   0.0000       2.033837        55.3435 
  96   0.0000       2.045355        55.6569 
  97   0.0000       2.075294        56.4716 
  98   0.0000       2.081869        56.6505 
  99   0.0000       2.137578        58.1665 
 100   0.0000       2.195579        59.7448 
 101   0.0000       2.233646        60.7806 
 102   0.0000       2.249318        61.2071 
 103   0.0000       2.290921        62.3391 
 104   0.0000       2.313878        62.9638 
 105   0.0000       2.362545        64.2881 
 106   0.0000       2.365401        64.3658 
 107   0.0000       2.405998        65.4705 
 108   0.0000       2.441637        66.4403 
 109   0.0000       2.448043        66.6146 
 110   0.0000       2.604168        70.8630 
 111   0.0000       2.637381        71.7668 
 112   0.0000       2.663864        72.4874 
 113   0.0000       2.690070        73.2005 
 114   0.0000       2.739187        74.5371 
 115   0.0000       2.791770        75.9679 
 116   0.0000       2.824266        76.8522 
 117   0.0000       2.828065        76.9556 
 118   0.0000       2.839759        77.2738 
 119   0.0000       2.953580        80.3710 
 120   0.0000       2.980874        81.1137 
 121   0.0000       3.071401        83.5771 
 122   0.0000       3.103904        84.4615 
 123   0.0000       3.118523        84.8593 
 124   0.0000       3.251873        88.4880 
 125   0.0000       3.447814        93.8198 
 126   0.0000       3.490386        94.9782 
 127   0.0000       3.791986       103.1852 

                    ********************************
                    * MULLIKEN POPULATION ANALYSIS *
                    ********************************

--------------------------------------------
MULLIKEN ATOMIC CHARGES AND SPIN POPULATIONS
--------------------------------------------
   0 C :   -0.008701   -0.003628
   1 C :   -0.067012   -0.018221
   2 C :    0.232463    0.017514
   3 C :   -0.097311   -0.003853
   4 C :   -0.014420   -0.000362
   5 C :   -0.035376    0.004825
   6 H :    0.026045   -0.001370
   7 H :    0.022513    0.000413
   8 H :   -0.011844   -0.001795
   9 H :    0.022342   -0.000817
  10 H :    0.019101   -0.000117
  11 O :   -0.300636   -0.398399
  12 H :    0.212837    0.405810
Sum of atomic charges         :   -0.0000000
Sum of atomic spin populations:   -0.0000000

-----------------------------------------------------
MULLIKEN REDUCED ORBITAL CHARGES AND SPIN POPULATIONS
-----------------------------------------------------
CHARGE
  0 C s       :     3.149273  s :     3.149273
      pz      :     0.966268  p :     2.823181
      px      :     0.918467
      py      :     0.938447
      dz2     :     0.002556  d :     0.036246
      dxz     :     0.003863
      dyz     :     0.006809
      dx2y2   :     0.011081
      dxy     :     0.011938
  1 C s       :     3.206348  s :     3.206348
      pz      :     1.061267  p :     2.827965
      px      :     0.883046
      py      :     0.883652
      dz2     :     0.002680  d :     0.032699
      dxz     :     0.003362
      dyz     :     0.005366
      dx2y2   :     0.008733
      dxy     :     0.012559
  2 C s       :     2.949683  s :     2.949683
      pz      :     0.945633  p :     2.742132
      px      :     1.011086
      py      :     0.785412
      dz2     :     0.005437  d :     0.075723
      dxz     :     0.007525
      dyz     :     0.019645
      dx2y2   :     0.024724
      dxy     :     0.018392
  3 C s       :     3.193860  s :     3.193860
      pz      :     1.086678  p :     2.870679
      px      :     0.848409
      py      :     0.935592
      dz2     :     0.002690  d :     0.032772
      dxz     :     0.003405
      dyz     :     0.005263
      dx2y2   :     0.009090
      dxy     :     0.012324
  4 C s       :     3.150029  s :     3.150029
      pz      :     0.966277  p :     2.828233
      px      :     0.914728
      py      :     0.947229
      dz2     :     0.002570  d :     0.036158
      dxz     :     0.003703
      dyz     :     0.007044
      dx2y2   :     0.011361
      dxy     :     0.011480
  5 C s       :     3.143096  s :     3.143096
      pz      :     1.036375  p :     2.857951
      px      :     0.954288
      py      :     0.867288
      dz2     :     0.002559  d :     0.034328
      dxz     :     0.006256
      dyz     :     0.002516
      dx2y2   :     0.012388
      dxy     :     0.010609
  6 H s       :     0.951396  s :     0.951396
      pz      :     0.004414  p :     0.022560
      px      :     0.011696
      py      :     0.006450
  7 H s       :     0.954596  s :     0.954596
      pz      :     0.004828  p :     0.022891
      px      :     0.011892
      py      :     0.006171
  8 H s       :     0.988761  s :     0.988761
      pz      :     0.005205  p :     0.023082
      px      :     0.011659
      py      :     0.006218
  9 H s       :     0.955113  s :     0.955113
      pz      :     0.004470  p :     0.022545
      px      :     0.012147
      py      :     0.005928
 10 H s       :     0.957868  s :     0.957868
      pz      :     0.004912  p :     0.023032
      px      :     0.003051
      py      :     0.015068
 11 O s       :     3.841258  s :     3.841258
      pz      :     1.835154  p :     4.447548
      px      :     1.282270
      py      :     1.330124
      dz2     :     0.001689  d :     0.011830
      dxz     :     0.000129
      dyz     :     0.002789
      dx2y2   :     0.004906
      dxy     :     0.002317
 12 H s       :     0.781141  s :     0.781141
      pz      :     0.000843  p :     0.006022
      px      :     0.003953
      py      :     0.001226

SPIN
  0 C s       :    -0.000434  s :    -0.000434
      pz      :    -0.000788  p :    -0.003156
      px      :     0.000112
      py      :    -0.002480
      dz2     :    -0.000002  d :    -0.000038
      dxz     :     0.000016
      dyz     :     0.000039
      dx2y2   :    -0.000011
      dxy     :    -0.000081
  1 C s       :    -0.006029  s :    -0.006029
      pz      :     0.001452  p :    -0.012110
      px      :    -0.007352
      py      :    -0.006211
      dz2     :    -0.000018  d :    -0.000082
      dxz     :    -0.000048
      dyz     :    -0.000004
      dx2y2   :     0.000014
      dxy     :    -0.000025
  2 C s       :     0.004992  s :     0.004992
      pz      :     0.000128  p :     0.016615
      px      :     0.007641
      py      :     0.008846
      dz2     :    -0.000022  d :    -0.004093
      dxz     :    -0.000017
      dyz     :     0.000208
      dx2y2   :     0.000028
      dxy     :    -0.004291
  3 C s       :    -0.001022  s :    -0.001022
      pz      :     0.002976  p :    -0.002933
      px      :    -0.006405
      py      :     0.000496
      dz2     :    -0.000016  d :     0.000102
      dxz     :    -0.000044
      dyz     :    -0.000007
      dx2y2   :     0.000156
      dxy     :     0.000013
  4 C s       :     0.000104  s :     0.000104
      pz      :    -0.000708  p :    -0.000463
      px      :    -0.000119
      py      :     0.000364
      dz2     :     0.000002  d :    -0.000003
      dxz     :     0.000015
      dyz     :     0.000057
      dx2y2   :     0.000003
      dxy     :    -0.000080
  5 C s       :     0.000542  s :     0.000542
      pz      :     0.003942  p :     0.004303
      px      :     0.000227
      py      :     0.000134
      dz2     :    -0.000010  d :    -0.000020
      dxz     :     0.000000
      dyz     :    -0.000006
      dx2y2   :     0.000015
      dxy     :    -0.000018
  6 H s       :    -0.001371  s :    -0.001371
      pz      :    -0.000006  p :     0.000001
      px      :    -0.000005
      py      :     0.000013
  7 H s       :     0.000416  s :     0.000416
      pz      :     0.000016  p :    -0.000003
      px      :    -0.000033
      py      :     0.000014
  8 H s       :    -0.002018  s :    -0.002018
      pz      :     0.000031  p :     0.000223
      px      :     0.000051
      py      :     0.000141
  9 H s       :    -0.000816  s :    -0.000816
      pz      :    -0.000006  p :    -0.000001
      px      :    -0.000000
      py      :     0.000005
 10 H s       :    -0.000148  s :    -0.000148
      pz      :     0.000027  p :     0.000030
      px      :     0.000002
      py      :     0.000001
 11 O s       :    -0.004095  s :    -0.004095
      pz      :    -0.007326  p :    -0.394299
      px      :    -0.374499
      py      :    -0.012474
      dz2     :     0.000012  d :    -0.000005
      dxz     :    -0.000015
      dyz     :    -0.000006
      dx2y2   :     0.000059
      dxy     :    -0.000055
 12 H s       :     0.406581  s :     0.406581
      pz      :     0.000073  p :    -0.000772
      px      :    -0.000691
      py      :    -0.000154


                     *******************************
                     * LOEWDIN POPULATION ANALYSIS *
                     *******************************

-------------------------------------------
LOEWDIN ATOMIC CHARGES AND SPIN POPULATIONS
-------------------------------------------
   0 C :   -0.014129   -0.002832
   1 C :   -0.065125   -0.014677
   2 C :    0.032591    0.000249
   3 C :   -0.088186   -0.002374
   4 C :   -0.017061    0.000797
   5 C :   -0.064859    0.003797
   6 H :    0.035850   -0.001027
   7 H :    0.037758    0.000291
   8 H :    0.023425    0.002278
   9 H :    0.034541   -0.000666
  10 H :    0.030993    0.000095
  11 O :   -0.147550   -0.363535
  12 H :    0.201751    0.377603

----------------------------------------------------
LOEWDIN REDUCED ORBITAL CHARGES AND SPIN POPULATIONS
----------------------------------------------------
CHARGE
  0 C s       :     2.858500  s :     2.858500
      pz      :     0.950054  p :     3.062923
      px      :     1.053115
      py      :     1.059753
      dz2     :     0.005954  d :     0.092706
      dxz     :     0.007280
      dyz     :     0.013975
      dx2y2   :     0.031583
      dxy     :     0.033914
  1 C s       :     2.858010  s :     2.858010
      pz      :     1.036292  p :     3.120532
      px      :     1.031393
      py      :     1.052847
      dz2     :     0.006391  d :     0.086582
      dxz     :     0.005889
      dyz     :     0.010925
      dx2y2   :     0.027309
      dxy     :     0.036067
  2 C s       :     2.846615  s :     2.846615
      pz      :     0.936398  p :     2.948151
      px      :     1.105142
      py      :     0.906611
      dz2     :     0.011878  d :     0.172643
      dxz     :     0.015096
      dyz     :     0.037170
      dx2y2   :     0.060731
      dxy     :     0.047769
  3 C s       :     2.862335  s :     2.862335
      pz      :     1.056079  p :     3.138511
      px      :     1.015881
      py      :     1.066550
      dz2     :     0.006480  d :     0.087339
      dxz     :     0.006106
      dyz     :     0.010702
      dx2y2   :     0.028140
      dxy     :     0.035911
  4 C s       :     2.858588  s :     2.858588
      pz      :     0.951542  p :     3.065893
      px      :     1.052773
      py      :     1.061578
      dz2     :     0.006018  d :     0.092580
      dxz     :     0.006885
      dyz     :     0.014682
      dx2y2   :     0.032458
      dxy     :     0.032537
  5 C s       :     2.855228  s :     2.855228
      pz      :     1.016500  p :     3.120037
      px      :     1.063537
      py      :     1.040000
      dz2     :     0.006081  d :     0.089594
      dxz     :     0.013152
      dyz     :     0.004112
      dx2y2   :     0.035268
      dxy     :     0.030982
  6 H s       :     0.897885  s :     0.897885
      pz      :     0.013424  p :     0.066266
      px      :     0.033719
      py      :     0.019123
  7 H s       :     0.893284  s :     0.893284
      pz      :     0.015683  p :     0.068958
      px      :     0.034767
      py      :     0.018509
  8 H s       :     0.908338  s :     0.908338
      pz      :     0.016401  p :     0.068237
      px      :     0.033414
      py      :     0.018422
  9 H s       :     0.899144  s :     0.899144
      pz      :     0.013508  p :     0.066315
      px      :     0.034859
      py      :     0.017949
 10 H s       :     0.901363  s :     0.901363
      pz      :     0.015304  p :     0.067644
      px      :     0.010828
      py      :     0.041512
 11 O s       :     3.626113  s :     3.626113
      pz      :     1.827425  p :     4.501545
      px      :     1.270512
      py      :     1.403607
      dz2     :     0.002877  d :     0.019892
      dxz     :     0.000126
      dyz     :     0.003879
      dx2y2   :     0.008714
      dxy     :     0.004296
 12 H s       :     0.785440  s :     0.785440
      pz      :     0.001411  p :     0.012809
      px      :     0.009436
      py      :     0.001961

SPIN
  0 C s       :    -0.000548  s :    -0.000548
      pz      :    -0.000612  p :    -0.002201
      px      :     0.000018
      py      :    -0.001607
      dz2     :    -0.000010  d :    -0.000083
      dxz     :     0.000042
      dyz     :     0.000089
      dx2y2   :     0.000015
      dxy     :    -0.000218
  1 C s       :    -0.003924  s :    -0.003924
      pz      :     0.001242  p :    -0.010669
      px      :    -0.005696
      py      :    -0.006215
      dz2     :    -0.000050  d :    -0.000084
      dxz     :    -0.000056
      dyz     :    -0.000023
      dx2y2   :    -0.000050
      dxy     :     0.000095
  2 C s       :     0.002373  s :     0.002373
      pz      :    -0.000090  p :     0.008248
      px      :     0.000669
      py      :     0.007669
      dz2     :    -0.000163  d :    -0.010371
      dxz     :    -0.000023
      dyz     :     0.000299
      dx2y2   :    -0.000392
      dxy     :    -0.010093
  3 C s       :    -0.000168  s :    -0.000168
      pz      :     0.002634  p :    -0.002593
      px      :    -0.006028
      py      :     0.000802
      dz2     :    -0.000029  d :     0.000387
      dxz     :    -0.000053
      dyz     :    -0.000018
      dx2y2   :     0.000420
      dxy     :     0.000067
  4 C s       :     0.000307  s :     0.000307
      pz      :    -0.000521  p :     0.000549
      px      :    -0.000010
      py      :     0.001080
      dz2     :     0.000005  d :    -0.000058
      dxz     :     0.000038
      dyz     :     0.000122
      dx2y2   :    -0.000009
      dxy     :    -0.000215
  5 C s       :     0.000176  s :     0.000176
      pz      :     0.003539  p :     0.003665
      px      :     0.000017
      py      :     0.000108
      dz2     :    -0.000010  d :    -0.000043
      dxz     :     0.000001
      dyz     :    -0.000010
      dx2y2   :     0.000031
      dxy     :    -0.000054
  6 H s       :    -0.000973  s :    -0.000973
      pz      :    -0.000019  p :    -0.000054
      px      :     0.000003
      py      :    -0.000038
  7 H s       :     0.000437  s :     0.000437
      pz      :     0.000062  p :    -0.000146
      px      :    -0.000253
      py      :     0.000045
  8 H s       :     0.001595  s :     0.001595
      pz      :     0.000101  p :     0.000683
      px      :     0.000182
      py      :     0.000399
  9 H s       :    -0.000703  s :    -0.000703
      pz      :    -0.000017  p :     0.000037
      px      :     0.000011
      py      :     0.000044
 10 H s       :    -0.000032  s :    -0.000032
      pz      :     0.000101  p :     0.000127
      px      :     0.000011
      py      :     0.000016
 11 O s       :     0.003531  s :     0.003531
      pz      :    -0.006880  p :    -0.367476
      px      :    -0.352211
      py      :    -0.008385
      dz2     :     0.000156  d :     0.000410
      dxz     :    -0.000014
      dyz     :    -0.000007
      dx2y2   :     0.000118
      dxy     :     0.000156
 12 H s       :     0.380734  s :     0.380734
      pz      :     0.000072  p :    -0.003131
      px      :    -0.002502
      py      :    -0.000701


                      *****************************
                      * MAYER POPULATION ANALYSIS *
                      *****************************

  NA   - Mulliken gross atomic population
  ZA   - Total nuclear charge
  QA   - Mulliken gross atomic charge
  VA   - Mayer's total valence
  BVA  - Mayer's bonded valence
  FA   - Mayer's free valence

  ATOM       NA         ZA         QA         VA         BVA        FA
  0 C      6.0087     6.0000    -0.0087     3.8761     3.8761     0.0000
  1 C      6.0670     6.0000    -0.0670     3.8900     3.8896     0.0004
  2 C      5.7675     6.0000     0.2325     3.9201     3.9197     0.0005
  3 C      6.0973     6.0000    -0.0973     3.8795     3.8792     0.0003
  4 C      6.0144     6.0000    -0.0144     3.8976     3.8976     0.0000
  5 C      6.0354     6.0000    -0.0354     3.8551     3.8550     0.0000
  6 H      0.9740     1.0000     0.0260     0.9848     0.9848     0.0000
  7 H      0.9775     1.0000     0.0225     0.9971     0.9971     0.0000
  8 H      1.0118     1.0000    -0.0118     0.9973     0.9972     0.0000
  9 H      0.9777     1.0000     0.0223     0.9843     0.9843     0.0000
 10 H      0.9809     1.0000     0.0191     0.9852     0.9852     0.0000
 11 O      8.3006     8.0000    -0.3006     2.1375     1.9859     0.1516
 12 H      0.7872     1.0000     0.2128     0.9551     0.7875     0.1676

  Mayer bond orders larger than 0.1
B(  0-C ,  1-C ) :   1.4077 B(  0-C ,  5-C ) :   1.3870 B(  0-C ,  6-H ) :   0.9863 
B(  1-C ,  2-C ) :   1.3468 B(  1-C ,  7-H ) :   0.9921 B(  2-C ,  3-C ) :   1.3327 
B(  2-C , 11-O ) :   1.1430 B(  3-C ,  4-C ) :   1.3976 B(  3-C ,  8-H ) :   0.9836 
B(  4-C ,  5-C ) :   1.4051 B(  4-C ,  9-H ) :   0.9838 B(  5-C , 10-H ) :   0.9915 
B( 11-O , 12-H ) :   0.7149 

-------
TIMINGS
-------

Total SCF time: 0 days 0 hours 3 min 52 sec 

Total time                  ....     232.519 sec
Sum of individual times     ....     229.917 sec  ( 98.9%)

Fock matrix formation       ....     178.472 sec  ( 76.8%)
  Split-RI-J                ....      15.117 sec  (  8.5% of F)
  Chain of spheres X        ....     148.745 sec  ( 83.3% of F)
  COS-X 1 center corr.      ....       0.000 sec  (  0.0% of F)
  XC integration            ....      13.905 sec  (  7.8% of F)
    Basis function eval.    ....       3.922 sec  ( 28.2% of XC)
    Density eval.           ....       2.755 sec  ( 19.8% of XC)
    XC-Functional eval.     ....       2.394 sec  ( 17.2% of XC)
    XC-Potential eval.      ....       4.641 sec  ( 33.4% of XC)
Diagonalization             ....       0.302 sec  (  0.1%)
Density matrix formation    ....       0.016 sec  (  0.0%)
Population analysis         ....       0.009 sec  (  0.0%)
Initial guess               ....       0.440 sec  (  0.2%)
Orbital Transformation      ....       0.000 sec  (  0.0%)
Orbital Orthonormalization  ....       0.000 sec  (  0.0%)
DIIS solution               ....       0.560 sec  (  0.2%)
Grid generation             ....       1.630 sec  (  0.7%)
SCF Stability Analysis      ....      48.488 sec  ( 20.9%)
------------------------------------------------------------------------------
                        ORCA TD-DFT/TDA CALCULATION
------------------------------------------------------------------------------

Input orbitals are from        ... /scratch/ch1tk/orca.15336/wB97XD3_def2-SVP_toluene_S0_TDA6S_1-70.gbw
CI-vector output               ... /scratch/ch1tk/orca.15336/wB97XD3_def2-SVP_toluene_S0_TDA6S_1-70.cis
Tamm-Dancoff approximation     ... operative
CIS-Integral strategy          ... AO-integrals
Integral handling              ... AO integral Direct
Max. core memory used          ... 512 MB
Reference state                ... UHF
Number of operators            ... 2
Orbital ranges used for CIS calculation:
 Operator 0:  Orbitals   7... 24  to  25...127
 Operator 1:  Orbitals   7... 24  to  25...127
XAS localization array:
 Operator 0:  Orbitals  -1... -1
 Operator 1:  Orbitals  -1... -1
-------------------
XC-INTEGRATION GRID
-------------------

General Integration Accuracy     IntAcc      ...  3.670
Radial Grid Type                 RadialGrid  ... Gauss-Chebyshev
Angular Grid (max. acc.)         AngularGrid ... Lebedev-50
Angular grid pruning method      GridPruning ... 3 (G Style)
Weight generation scheme         WeightScheme... Becke
Basis function cutoff            BFCut       ...    1.0000e-10
Integration weight cutoff        WCut        ...    1.0000e-14
Grids for H and He will be reduced by one unit

# of grid points (after initial pruning)     ...   7582 (   0.0 sec)
# of grid points (after weights+screening)   ...   7153 (   0.0 sec)
nearest neighbour list constructed           ...    0.0 sec
Grid point re-assignment to atoms done       ...    0.0 sec
Grid point division into batches done        ...    0.0 sec
Reduced shell lists constructed in    0.1 sec

Total number of grid points                  ...     7153
Total number of batches                      ...      118
Average number of points per batch           ...       60
Average number of grid points per atom       ...      550
Average number of shells per batch           ...    46.56 (77.61%)
Average number of basis functions per batch  ...    99.39 (77.65%)
Average number of large shells per batch     ...    37.89 (81.38%)
Average number of large basis fcns per batch ...    79.84 (80.33%)
Maximum spatial batch extension              ...  17.81, 16.53, 39.19 au
Average spatial batch extension              ...   4.41,  4.28,  7.07 au

---------------------
COSX-INTEGRATION GRID
---------------------

General Integration Accuracy     IntAcc      ...  2.670
Radial Grid Type                 RadialGrid  ... Gauss-Chebyshev
Angular Grid (max. acc.)         AngularGrid ... Lebedev-50
Angular grid pruning method      GridPruning ... 3 (G Style)
Weight generation scheme         WeightScheme... Becke
Basis function cutoff            BFCut       ...    1.0000e-10
Integration weight cutoff        WCut        ...    1.0000e-14
Grids for H and He will be reduced by one unit

# of grid points (after initial pruning)     ...   4338 (   0.0 sec)
# of grid points (after weights+screening)   ...   4109 (   0.0 sec)
nearest neighbour list constructed           ...    0.0 sec
Grid point re-assignment to atoms done       ...    0.0 sec
Grid point division into batches done        ...    0.0 sec
Reduced shell lists constructed in    0.0 sec

Total number of grid points                  ...     4109
Total number of batches                      ...       73
Average number of points per batch           ...       56
Average number of grid points per atom       ...      316
Average number of shells per batch           ...    47.23 (78.72%)
Average number of basis functions per batch  ...   101.45 (79.25%)
Average number of large shells per batch     ...    38.85 (82.26%)
Average number of large basis fcns per batch ...    82.58 (81.40%)
Maximum spatial batch extension              ...  13.79, 12.25, 24.03 au
Average spatial batch extension              ...   4.72,  4.52,  7.47 au


---------------
TD-DFT XC SETUP
---------------

DFT calculation                         ... on
Name of the grid file                   ... /scratch/ch1tk/orca.15336/wB97XD3_def2-SVP_toluene_S0_TDA6S_1-70.grid_cis.tmp
Exchange functional (SCF)               ... WB97X-D3
Exchange functional (TD-DFT)            ... WB97X-D3
Correlation functional (SCF)            ... WB97X-D3
Correlation functional (TD-DFT)         ... WB97X-D3
Hybrid DFT                              ... on
   Exchange mixing (SCF)                ...  0.196
   Exchange mixing (TD-DFT)             ...  0.196
   GGA exch. scaling(SCF)               ...  0.000
   GGA exch. scaling (TD-DFT)           ...  0.000
   GGA corr. scaling (SCF)              ...  1.000
   GGA corr. scaling (TD-DFT)           ...  1.000
Range-Separated Exchange                ... on
   Range Range separation parameter mu  .... 0.250
   Max. amount of RS exchange (SCF)     ...  0.804
   Max. amount of RS exchange (TD-DFT)  ...  0.804

Building densities             ... done
Calculating rho(r) on the grid ... done
Building xc-kernel on the grid ... done
                    *** TD-DFT CALCULATION INITIALIZED ***


------------------------
DAVIDSON-DIAGONALIZATION
------------------------

Dimension of the eigenvalue problem            ...   3708
Number of roots to be determined               ...      6
Maximum size of the expansion space            ...     60
Convergence tolerance for the residual         ...    1.000e-06
Convergence tolerance for the energies         ...    1.000e-06
Orthogonality tolerance                        ...    1.000e-14
Level Shift                                    ...    0.000e+00
Constructing the preconditioner                ... o.k.
Building the initial guess                     ... o.k.
Number of trial vectors determined             ...     60


                       ****Iteration    0****

   Memory handling for direct AO based CIS:
   Memory per vector needed      ...     1 MB
   Memory needed                 ...    23 MB
   Memory available              ...   512 MB
   Number of vectors per batch   ...   391
   Number of batches             ...     1
   Time for densities:     0.017
   Time for RI-J (Direct):     3.844
   Time for K (COSX):     3.187
   Time for XC-Integration:     2.059
   Time for Sigma-Completion:     0.074
   Size of expansion space: 18
   Lowest Energy          :     0.040375716398
   Maximum Energy change  :     0.164097583102 (vector 5)
   Maximum residual norm  :     0.008410048637

                       ****Iteration    1****
   Time for densities:     0.006
   Time for RI-J (Direct):     1.374
   Time for K (COSX):     2.561
   Time for XC-Integration:     0.722
   Time for Sigma-Completion:     0.024
   Size of expansion space: 24
   Lowest Energy          :     0.033623793873
   Maximum Energy change  :     0.015688550095 (vector 2)
   Maximum residual norm  :     0.001082779631

                       ****Iteration    2****
   Time for densities:     0.006
   Time for RI-J (Direct):     1.390
   Time for K (COSX):     2.518
   Time for XC-Integration:     0.723
   Time for Sigma-Completion:     0.024
   Size of expansion space: 30
   Lowest Energy          :     0.033107079066
   Maximum Energy change  :     0.001099216000 (vector 2)
   Maximum residual norm  :     0.000506079770

                       ****Iteration    3****
   Time for densities:     0.006
   Time for RI-J (Direct):     1.382
   Time for K (COSX):     2.500
   Time for XC-Integration:     0.725
   Time for Sigma-Completion:     0.025
   Size of expansion space: 36
   Lowest Energy          :     0.033096260874
   Maximum Energy change  :     0.002792920604 (vector 4)
   Maximum residual norm  :     0.000542321685

                       ****Iteration    4****
   Time for densities:     0.006
   Time for RI-J (Direct):     1.393
   Time for K (COSX):     2.499
   Time for XC-Integration:     0.727
   Time for Sigma-Completion:     0.024
   Size of expansion space: 42
   Lowest Energy          :     0.033096125995
   Maximum Energy change  :     0.000699039967 (vector 4)
   Maximum residual norm  :     0.000082205631

                       ****Iteration    5****
   Time for densities:     0.006
   Time for RI-J (Direct):     1.387
   Time for K (COSX):     2.471
   Time for XC-Integration:     0.728
   Time for Sigma-Completion:     0.024
   Size of expansion space: 48
   Lowest Energy          :     0.033096122681
   Maximum Energy change  :     0.000340129784 (vector 4)
   Maximum residual norm  :     0.000046964565

                       ****Iteration    6****
   Time for densities:     0.006
   Time for RI-J (Direct):     1.389
   Time for K (COSX):     2.472
   Time for XC-Integration:     0.733
   Time for Sigma-Completion:     0.024
   Size of expansion space: 54
   Lowest Energy          :     0.033096122612
   Maximum Energy change  :     0.000072737850 (vector 4)
   Maximum residual norm  :     0.000003091546

                       ****Iteration    7****
   Time for densities:     0.006
   Time for RI-J (Direct):     1.388
   Time for K (COSX):     2.471
   Time for XC-Integration:     0.737
   Time for Sigma-Completion:     0.024
   Size of expansion space: 60
   Lowest Energy          :     0.033096122611
   Maximum Energy change  :     0.000003910453 (vector 4)
   Maximum residual norm  :     0.000000218207

      *** CONVERGENCE OF RESIDUAL NORM REACHED ***

Storing the converged CI vectors               ... /scratch/ch1tk/orca.15336/wB97XD3_def2-SVP_toluene_S0_TDA6S_1-70.cis1

                 *** DAVIDSON DONE ***

Total time for solving the CIS problem:    41.897sec

-------------------------
TD-DFT/TDA EXCITED STATES
-------------------------

the weight of the individual excitations are printed if larger than 0.01

STATE  1:  E=   0.033096 au      0.901 eV     7263.8 cm**-1
    18a ->  25a  :     0.023932 (c=  0.15469919)
    21a ->  25a  :     0.130894 (c= -0.36179308)
    24a ->  25a  :     0.819874 (c= -0.90546893)
    24b ->  25b  :     0.014877 (c= -0.12197116)

STATE  2:  E=   0.085504 au      2.327 eV    18766.0 cm**-1
    24a ->  25a  :     0.022277 (c= -0.14925358)
    21b ->  25b  :     0.082214 (c= -0.28672975)
    24b ->  25b  :     0.875572 (c=  0.93571995)

STATE  3:  E=   0.106626 au      2.901 eV    23401.7 cm**-1
    19a ->  25a  :     0.041894 (c= -0.20468011)
    20a ->  25a  :     0.060286 (c=  0.24553184)
    22a ->  25a  :     0.481056 (c= -0.69358171)
    14b ->  25b  :     0.021940 (c=  0.14812317)
    19b ->  25b  :     0.143658 (c= -0.37902260)
    22b ->  25b  :     0.217078 (c= -0.46591614)

STATE  4:  E=   0.132260 au      3.599 eV    29027.6 cm**-1
    23a ->  25a  :     0.995457 (c=  0.99772579)

STATE  5:  E=   0.154740 au      4.211 eV    33961.5 cm**-1
    23a ->  26a  :     0.144448 (c=  0.38006259)
    24a ->  26a  :     0.010433 (c=  0.10214426)
    24a ->  27a  :     0.329924 (c= -0.57439033)
    23b ->  26b  :     0.143943 (c= -0.37939775)
    24b ->  27b  :     0.316212 (c= -0.56232752)

STATE  6:  E=   0.159342 au      4.336 eV    34971.6 cm**-1
    23b ->  25b  :     0.982758 (c=  0.99134152)


-----------------------------
TD-DFT/TDA-EXCITATION SPECTRA
-----------------------------

Center of mass = ( -0.0032,  0.0461,  0.0000)
Calculating the Dipole integrals                  ... done
Transforming integrals                            ... done
Calculating the Linear Momentum integrals         ... done
Transforming integrals                            ... done
Calculating angular momentum integrals            ... done
Transforming integrals                            ... done

-----------------------------------------------------------------------------
         ABSORPTION SPECTRUM VIA TRANSITION ELECTRIC DIPOLE MOMENTS
-----------------------------------------------------------------------------
State   Energy  Wavelength   fosc         T2         TX        TY        TZ  
        (cm-1)    (nm)                  (au**2)     (au)      (au)      (au) 
-----------------------------------------------------------------------------
   1    7263.8   1376.7   0.000000004   0.00000  -0.00000   0.00000   0.00044
   2   18766.0    532.9   0.000000140   0.00000  -0.00000   0.00000  -0.00157
   3   23401.7    427.3   0.014192289   0.19965  -0.33258  -0.29840   0.00000
   4   29027.6    344.5   0.000061591   0.00070  -0.00000   0.00001  -0.02643
   5   33961.5    294.5   0.000135830   0.00132  -0.01381  -0.03356  -0.00000
   6   34971.6    285.9   0.000067713   0.00064  -0.00001  -0.00001   0.02525

-----------------------------------------------------------------------------
         ABSORPTION SPECTRUM VIA TRANSITION VELOCITY DIPOLE MOMENTS
-----------------------------------------------------------------------------
State   Energy  Wavelength   fosc         P2         PX        PY        PZ  
        (cm-1)    (nm)                  (au**2)     (au)      (au)      (au) 
-----------------------------------------------------------------------------
   1    7263.8   1376.7   0.006238259   0.00031  -0.00000   0.00000  -0.01760
   2   18766.0    532.9   0.005503240   0.00071  -0.00000  -0.00000  -0.02657
   3   23401.7    427.3   0.007497234   0.00120  -0.00818   0.03365   0.00000
   4   29027.6    344.5   0.000096565   0.00002  -0.00000   0.00000  -0.00438
   5   33961.5    294.5   0.000003863   0.00000   0.00030   0.00090   0.00000
   6   34971.6    285.9   0.000099615   0.00002   0.00000   0.00000  -0.00488

-------------------------------------------------------------------
                             CD SPECTRUM
-------------------------------------------------------------------
State   Energy Wavelength       R         MX        MY        MZ   
        (cm-1)   (nm)       (1e40*cgs)   (au)      (au)      (au)  
-------------------------------------------------------------------
   1    7263.8   1376.7     -0.00014   0.09718  -0.21948   0.00000
   2   18766.0    532.9     -0.00010   0.13237  -0.09429   0.00000
   3   23401.7    427.3      0.00004  -0.00000   0.00000   0.11324
   4   29027.6    344.5      0.00008   0.01009   0.02574  -0.00000
   5   33961.5    294.5      0.00000  -0.00000  -0.00000   0.00681
   6   34971.6    285.9      0.00023   0.00052  -0.02947   0.00001

Total run time:       42.338 sec

           *** ORCA-CIS/TD-DFT FINISHED WITHOUT ERROR ***

-----------------------
CIS/TD-DFT TOTAL ENERGY
-----------------------

    E(SCF)  =   -307.016054083 Eh
    DE(CIS) =      0.033096123 Eh (Root  1)
    ----------------------------- ---------
    E(tot)  =   -306.982957961 Eh



-------------------------------------------------------------------------------
                          DFT DISPERSION CORRECTION                            
                                                                               
                              DFTD3 V3.1  Rev 1                                
                              USING zero damping                               
-------------------------------------------------------------------------------
The omegaB97X-D3 functional is recognized. Fit by Chai et al.
Active option DFTDOPT                   ...         3   

molecular C6(AA) [au] = 2037.408298 


            DFT-D V3
 parameters
 s6 scaling factor         :     1.0000 
 rs6 scaling factor        :     1.2810 
 s8 scaling factor         :     1.0000 
 rs8 scaling factor        :     1.0940 
 Damping factor alpha6     :    14.0000 
 Damping factor alpha8     :    16.0000 
 ad hoc parameters k1-k3   :    16.0000     1.3333    -4.0000 

 Edisp/kcal,au: -1.879974498303  -0.002995929744 
 E6   /kcal   :  -0.808579877 
 E8   /kcal   :  -1.071394622 
 % E8         :  56.989848671 

-------------------------   ----------------
Dispersion correction           -0.002995930
-------------------------   ----------------


-------------------------   --------------------
FINAL SINGLE POINT ENERGY      -307.019050013069
-------------------------   --------------------


                            ***************************************
                            *     ORCA property calculations      *
                            ***************************************

                                    ---------------------
                                    Active property flags
                                    ---------------------
   (+) Dipole Moment


------------------------------------------------------------------------------
                       ORCA ELECTRIC PROPERTIES CALCULATION
------------------------------------------------------------------------------

Dipole Moment Calculation                       ... on
Quadrupole Moment Calculation                   ... off
Polarizability Calculation                      ... off
GBWName                                         ... /scratch/ch1tk/orca.15336/wB97XD3_def2-SVP_toluene_S0_TDA6S_1-70.gbw
Electron density file                           ... /scratch/ch1tk/orca.15336/wB97XD3_def2-SVP_toluene_S0_TDA6S_1-70.scfp.tmp
The origin for moment calculation is the CENTER OF MASS  = (-0.003172,  0.046058  0.000000)

-------------
DIPOLE MOMENT
-------------
                                X             Y             Z
Electronic contribution:     -0.86315       1.76067      -0.00000
Nuclear contribution   :      1.44485      -1.76223       0.00000
                        -----------------------------------------
Total Dipole Moment    :      0.58171      -0.00157      -0.00000
                        -----------------------------------------
Magnitude (a.u.)       :      0.58171
Magnitude (Debye)      :      1.47859


Timings for individual modules:

Sum of individual times         ...      277.777 sec (=   4.630 min)
GTO integral calculation        ...        1.604 sec (=   0.027 min)   0.6 %
SCF iterations                  ...      233.811 sec (=   3.897 min)  84.2 %
CIS module                      ...       42.362 sec (=   0.706 min)  15.3 %
                             ****ORCA TERMINATED NORMALLY****
TOTAL RUN TIME: 0 days 0 hours 4 minutes 38 seconds 34 msec
